# p  FACE_DATA 23640
#  x  y  z  p
-0.00296834 0.0159323 0 88.9153
0.000794309 0.0100339 0 217.196
0.00690979 0.0130745 0 20.7181
0.000158008 0.0018211 0 92686.5
-0.000662165 0.0113619 0 263.835
-0.00203768 0.00587959 0 1379.74
-0.000220137 0.00748479 0 132.773
0.00214531 0.0125841 0 565.443
-0.00164167 0.00702341 0 789.902
0.00020958 0.00306993 0 1650.58
4.59799e-005 0.00273939 0 84846.7
0.00075606 0.00524313 0 272.988
0.00107075 0.0257944 0 201.003
-0.000458708 0.0115994 0 225.548
-0.000900467 0.00350322 0 2189.78
-0.00222355 0.00655891 0 1302.91
0.00442703 0.0182294 0 41.5952
7.09705e-005 0.00299924 0 55118.3
-2.45517e-005 0.00292714 0 71955.2
-0.000543852 0.00394831 0 747.363
7.98376e-005 0.00283498 0 81414.8
0.00510868 0.0124654 0 13.8121
7.37866e-005 0.00284217 0 80831.6
-0.000122136 0.00287943 0 80254.2
0.00117211 0.0120328 0 377.579
0.000340217 0.00636002 0 202.094
-1.62375e-005 0.00331413 0 6607.98
0.000288499 0.00391811 0 1067.36
0.00604323 0.0215883 0 23.6599
0.0015748 0.0199438 0 333.978
0.000642306 0.0286533 0 155.124
-0.000788091 0.000235815 0 116262
8.45076e-005 0.00283429 0 81560.5
-0.000766033 0.00453527 0 405.424
-0.000556446 0.00360452 0 786.848
-0.000694613 0.00330261 0 2093.36
0.00425461 0.0181246 0 45.0441
0.00563158 0.0299784 0 85.1843
0.00374311 0.0125452 0 26.2829
-0.000168184 0.00269727 0 87438.9
0.00100487 0.00483203 0 300.104
-0.00170325 0.00704586 0 803.401
-0.00047461 0.0123053 0 245.917
-0.00401905 0.0129379 0 20.6934
0.000128446 0.00148328 0 93357.4
0.000108141 0.00315803 0 9090.45
0.00299545 0.0176096 0 84.63
0.00122698 0.00708374 0 223.53
0.000214903 0.00307399 0 1633.38
0.00225142 0.0126586 0 537.999
0.000204708 0.00068009 0 105218
4.25297e-005 0.00299727 0 57328.1
-0.000477288 0.00315875 0 1871.39
-0.00378992 0.02149 0 46.582
0.000139812 0.00181138 0 92685
0.000208917 0.00302796 0 1603.69
-0.00160791 0.0049468 0 1529.96
0.000941143 0.00995448 0 316.262
8.9442e-006 0.010956 0 69.1742
-0.000434056 0.00133506 0 94433.2
0.000566946 0.0289715 0 148.503
-7.40414e-005 0.003214 0 9449.1
-0.000145493 0.00239699 0 90555
3.42483e-005 0.00298986 0 59892.7
0.000575544 0.00987125 0 87.3807
3.71363e-005 0.00299095 0 59546.3
-0.00247102 0.00772987 0 1016.65
0.00096928 0.0118325 0 339.445
-9.22697e-005 0.00299969 0 47784
-0.000570617 0.0122505 0 259.935
-0.000211411 0.00254812 0 89776.6
-0.000765289 0.00457715 0 381.58
8.13068e-005 0.00294139 0 72491.4
-0.00437678 0.0203082 0 39.4166
0.00226862 0.00661101 0 1237.52
-0.000832194 0.000220534 0 114225
-0.000164868 0.00301134 0 1726.24
0.0012393 0.0259768 0 192.037
-2.48279e-005 0.00292318 0 72567.7
0.000116572 0.00245177 0 89986.8
9.77655e-005 0.00313112 0 11154.4
0.000279024 0.00328636 0 2124.37
-5.75605e-005 0.0116355 0 102.981
-7.47936e-005 0.0117342 0 107.247
0.000518168 0.00993111 0 81.7263
-0.000154608 0.0030256 0 1805.23
4.53443e-005 0.00299839 0 56973.1
-0.000161071 0.0027724 0 85265.6
0.000104836 0.00293916 0 74095.5
-0.00100104 0.00361077 0 2202.17
-0.000510005 0.00921774 0 88.2865
0.00100295 0.0100141 0 330.42
-0.000646084 0.00336418 0 1626.08
6.96906e-005 0.00293287 0 72797
-1.67264e-005 0.00300289 0 56146.7
0.000173509 0.0227352 0 319.191
3.17037e-005 0.00298455 0 61267.6
0.000312244 0.00306502 0 1797.36
-0.00212604 0.00906512 0 703.122
-0.00049218 0.00322389 0 1596.14
0.000341345 0.00323843 0 1379.02
-0.00385942 0.0216496 0 46.0301
-0.000125834 0.0028813 0 80206
0.00524627 0.0255212 0 75.5217
0.000713781 0.0036837 0 639.637
0.00601727 0.0299149 0 81.2744
-0.000344095 0.00203632 0 92607.8
-0.0047341 0.0239481 0 41.5178
-0.000460773 0.00539436 0 296.194
-0.00196148 0.00905338 0 666.637
0.00143807 0.0303782 0 130.268
7.94637e-005 0.00293894 0 72697.8
0.00013473 0.00481908 0 464.136
0.00105264 0.00484794 0 303.511
0.000112877 0.0030262 0 4959.46
-0.00781161 0.0282885 0 32.2458
-0.000846622 0.00344471 0 2174.65
-0.00206201 0.0306837 0 119.218
-0.00313594 0.0160362 0 82.9894
0.00144289 0.0198776 0 348.386
-0.000135136 0.00286502 0 80642.5
-0.000205101 0.000950881 0 95012.5
0.000372212 0.00308853 0 1789.29
0.000370404 0.000795868 0 96644.6
0.000201681 0.00347815 0 2493.52
-0.000147808 0.00278598 0 84752.2
0.000218103 0.000637733 0 110307
0.000195722 0.00313377 0 2703.1
-0.00203813 0.00594128 0 1371.93
0.00112067 0.00510142 0 277.399
5.16573e-005 0.00373385 0 1732.74
0.000381501 0.00336875 0 1291.92
0.000860715 0.0258401 0 210.355
-0.000116556 0.00339842 0 3816.24
-0.00513668 0.0257477 0 83.1528
-0.000162894 0.00277847 0 85385.9
8.27341e-005 0.00277738 0 83951.9
0.0010674 0.0118759 0 360.249
-4.09992e-005 0.00275121 0 84426.5
3.29665e-005 0.00297369 0 63974.7
-0.00204547 0.0090065 0 702.75
-0.00160474 0.0048986 0 1584.35
8.25825e-005 0.00294819 0 71462.6
4.00473e-005 0.00273627 0 84907
-9.41642e-005 0.00295571 0 70840.1
0.00150619 0.00997327 0 467.484
8.22134e-005 0.00268838 0 86520.1
-0.000160791 0.00267895 0 87537.7
-0.000596112 0.00909085 0 91.105
-9.31423e-005 0.00299701 0 52421.2
0.00235681 0.0126226 0 557.552
0.00203765 0.00557212 0 1559.26
-0.000165794 0.0115731 0 116.043
6.0159e-005 0.0021996 0 91394.4
0.000371981 0.00362464 0 1265.08
-0.00733688 0.029685 0 61.2153
-0.000180414 0.00743151 0 132.783
-0.000357207 0.004885 0 412.022
0.00253943 0.00813968 0 980.131
-1.29377e-005 0.00332967 0 6432.75
-0.0010235 0.00361199 0 2351
-0.000285329 0.0030748 0 1682.21
-0.000681311 0.00329291 0 1996.13
-0.00260727 0.00895038 0 807.625
0.00788717 0.0276195 0 24.7445
0.0089704 0.0287411 0 21.8482
-0.000270534 0.00232157 0 91503.7
-0.00014416 0.00312601 0 5947.48
-0.000337662 0.00201762 0 92675.3
0.0003962 0.00337513 0 1255.08
0.00121317 0.00701782 0 225.448
0.000116206 0.00302915 0 4550.39
0.00225197 0.00666935 0 1153.38
-0.000507665 0.00548922 0 276.89
-0.000231863 0.00226746 0 91558.8
0.000244361 0.00226851 0 91654.6
0.00111028 0.00505498 0 277.632
0.000121223 0.00304184 0 5659.15
0.00012049 0.00243938 0 90135.1
-0.0013386 0.0186068 0 303.553
0.000102064 0.00149733 0 93333.2
0.000147362 0.00301363 0 1680.43
0.00106981 0.0119939 0 360.96
-0.000365953 0.00411169 0 802.675
0.00557444 0.020358 0 25.9727
4.86089e-005 0.00307386 0 28414.3
-0.000177413 0.0035472 0 2324.44
-0.000632994 0.00339325 0 1329.2
0.000487307 0.00130985 0 94679.8
-0.000349424 0.00402777 0 891.655
-0.00177251 0.00629586 0 1104.12
-7.92525e-005 0.00273084 0 85408.4
0.000241714 0.00100077 0 94894.2
-0.000154516 0.0114773 0 111.307
0.00502442 0.0222916 0 32.0065
-0.000166546 0.00272686 0 86925.2
0.000707598 0.00365891 0 663.34
-0.00157418 0.0046046 0 1882.24
0.000122725 0.00301099 0 1842.96
0.000172305 0.00324558 0 4316.63
7.46185e-006 0.00286175 0 78533.9
0.00533293 0.0140838 0 16.7228
0.00520504 0.0284215 0 95.5205
-0.00170266 0.00713636 0 798.668
4.38765e-005 0.00290514 0 74998.5
0.00035679 0.0099507 0 74.4162
0.000120447 0.00300871 0 2017.39
7.85992e-005 0.00284146 0 81041.2
0.000146556 0.00306157 0 3207.24
-0.000265484 0.00230758 0 91590.2
-0.000558184 0.0114136 0 239.177
0.000873988 0.011905 0 325.892
0.00195145 0.0157285 0 195.665
0.000415959 0.00988952 0 74.5581
0.00204861 0.00551694 0 1771.92
0.00159497 0.00893937 0 550.696
0.00125366 0.00690066 0 279.552
-0.000537482 0.00397822 0 712.002
-0.00245206 0.00890865 0 743.108
-0.00591638 0.015069 0 14.0008
0.00182541 0.0157696 0 210.099
-6.39179e-005 0.00274368 0 84792.1
1.24162e-005 0.00286011 0 78728.3
0.000785526 0.00520879 0 271.494
0.000119132 0.00288179 0 79973.9
0.000107617 0.00492998 0 435.042
-0.000398708 0.00617064 0 204.371
-0.00031795 0.000861625 0 95780.4
-0.0054742 0.0145195 0 15.5834
-0.00050603 0.0093045 0 88.571
-0.00281713 0.0160093 0 98.149
-0.00521587 0.0225645 0 31.1716
0.000631138 0.00410172 0 580.532
0.00077675 0.0118594 0 302.237
-0.000339893 0.00491785 0 400.355
0.000278502 0.0033019 0 2111.76
-0.000206291 0.0025551 0 89571.6
0.0015782 0.00885327 0 544.806
-0.000601058 0.00917374 0 91.7067
0.000107852 0.00308374 0 10881.1
0.000329157 0.00324408 0 1500.01
-0.000107456 0.0030138 0 5131.62
0.000995869 0.00478803 0 305.074
-0.00176263 0.00715431 0 815.093
0.000133123 0.00190024 0 92472
0.00428452 0.0222831 0 42.4232
0.00249322 0.0134845 0 269.823
0.000209201 0.00303326 0 1626.94
1.124e-005 0.00241342 0 90089.4
-0.000138897 0.00282521 0 83572.9
-0.000422518 0.00130967 0 94540.2
0.000897928 0.00602889 0 203.559
0.00296246 0.0177704 0 85.3111
-0.000240922 0.0022558 0 91625.3
0.000161456 0.0106342 0 68.1463
-0.000169117 0.00269067 0 87430.2
-0.00600599 0.0132277 0 14.3838
-0.00498542 0.0226529 0 32.6123
0.00035646 0.00189436 0 92917.9
0.000360867 0.00193124 0 92834.8
0.000188008 0.00159518 0 93220.9
0.00315697 0.0294361 0 131.317
0.000380728 0.00331446 0 1220.43
-0.000407732 0.00541329 0 300.009
0.00599218 0.0187772 0 19.878
-0.000475668 0.0124289 0 244.8
9.243e-005 0.00339173 0 4402.01
-0.0022067 0.00902531 0 746.936
0.000138287 0.010546 0 67.8188
-4.59787e-005 0.00300592 0 53887.9
0.000475334 0.00325723 0 1343.22
0.0081269 0.0233608 0 13.6583
-0.000136448 0.00286953 0 81220.5
0.000465099 0.00132931 0 94629.9
0.000196949 0.00312437 0 2738.58
-0.000725979 0.00459524 0 411.44
0.00566025 0.0201173 0 26.0302
-0.000237093 0.000937504 0 95131.5
-7.15727e-006 0.00298867 0 60157.9
-0.000556128 0.00552312 0 269.637
-0.000151452 0.00278159 0 85301.9
0.00604583 0.0167381 0 15.8022
5.44524e-005 0.00307484 0 27235.9
3.5211e-005 0.00270778 0 85707
-0.00210731 0.0068781 0 1161.08
8.91266e-005 0.00319599 0 9470.8
-0.00242079 0.00974735 0 772.033
0.00135885 0.00413507 0 2041.18
-0.00108228 0.00797081 0 161.473
3.29303e-005 0.00271504 0 85449
-0.000508078 0.0208168 0 432.931
-0.00472826 0.0198065 0 35.481
0.00152826 0.0090827 0 521.503
-0.00252462 0.00897287 0 755.514
-4.09377e-005 0.0027578 0 84191.4
-0.00186927 0.0116808 0 578.808
0.00108447 0.00518193 0 259.448
-0.00419392 0.0202211 0 43.649
0.000296615 0.00594885 0 238.423
0.00365557 0.0156923 0 57.2486
-0.000138643 0.00311989 0 6316.54
3.44704e-005 0.00298593 0 60900.2
-0.000249911 0.000891772 0 95335.8
0.00110337 0.0099601 0 367.368
8.04689e-005 0.00279643 0 83108
0.00779157 0.0249956 0 15.3796
0.000351464 0.00337107 0 1488.68
-0.00012879 0.00323538 0 6142.64
0.000155895 0.00168996 0 92977.1
8.56943e-005 0.00294739 0 71820.4
0.0053023 0.0238774 0 31.6599
0.000238423 0.00318026 0 2274.6
0.000230406 0.00226533 0 91602.9
-5.15866e-005 0.00292996 0 72188.5
2.57476e-005 0.00286927 0 78098.8
0.000105066 0.00340141 0 4089.67
-0.0006343 0.00341198 0 1231.95
-0.00683177 0.0130924 0 17.3102
-1.54609e-005 0.00299907 0 57280.7
-0.00215958 0.00656839 0 1237.42
0.00301179 0.0141363 0 103.221
-0.000723924 0.00463742 0 400.386
-0.000555458 0.00358088 0 820.174
0.000287933 0.00394954 0 1029.54
-0.00525881 0.0259389 0 80.1925
-0.000235386 0.00314485 0 2032.67
-0.000664883 0.00104525 0 96477.6
0.00182857 0.0107598 0 547.886
0.00289308 0.0133881 0 145.857
0.000556851 0.000459359 0 114146
-6.31462e-005 0.00306344 0 27577.5
0.00204396 0.0126442 0 550.46
-0.000369072 0.00408052 0 819.538
-0.00018247 0.00378321 0 1383.4
0.000579156 0.0162179 0 650.375
0.00117061 0.0100074 0 374.978
0.000129771 0.00301154 0 1659.81
0.00050022 0.00329429 0 1237.51
-0.00194273 0.0117557 0 583.181
0.000295066 0.00600891 0 237.902
-0.000154748 0.0030213 0 1741.65
8.51353e-005 0.00297491 0 66077
0.000370749 0.00364798 0 1223.59
0.00032381 0.000892659 0 95741.4
-0.000114683 0.00273658 0 85696.3
7.10543e-005 0.0030026 0 52657
-9.6647e-005 0.00324264 0 7319.66
0.000733896 0.00537107 0 277.491
0.000155197 0.00494735 0 408.156
0.000610019 0.00412319 0 595.885
0.000353717 0.00194986 0 92821.5
-0.000244432 0.00314026 0 1831.73
-0.00502653 0.0232658 0 30.9381
-0.00178789 0.0309983 0 118.46
-0.000579723 0.00361754 0 777.427
0.00813841 0.0273314 0 17.7204
-0.002496 0.0131044 0 328.887
-0.00431729 0.0290645 0 108.849
-0.000157683 0.00240005 0 90584.1
-6.09633e-005 0.00273787 0 85059.7
-0.000172602 0.00356894 0 2208.83
5.95493e-005 0.00280503 0 82444.7
3.59382e-005 0.00297531 0 63626.4
0.0038221 0.0156522 0 50.3165
0.00151814 0.00899556 0 515.361
0.00891208 0.0209237 0 11.4762
0.00932881 0.0247628 0 11.0977
0.000401147 0.00319889 0 1380.53
-1.37134e-005 0.00292236 0 72540.8
-0.00149883 0.0199029 0 305.155
-0.000151382 0.00307642 0 3689.3
-9.99299e-005 0.00297786 0 65566.6
0.00528439 0.0241343 0 31.6009
2.61097e-005 0.00286432 0 78487.2
0.000206875 0.00349712 0 2388.21
-0.00509797 0.0234717 0 31.4692
-0.000597722 0.000953511 0 96984
-0.00793898 0.0155863 0 17.3358
0.00183935 0.0106624 0 545.627
7.52069e-005 0.00339368 0 4538.87
-7.77056e-005 0.00294222 0 71729.1
-9.8985e-005 0.00297992 0 65053.7
0.00161823 0.00911669 0 539.349
8.21842e-005 0.00297527 0 65754.1
-0.00188133 0.00900925 0 644.372
-0.00617827 0.0275965 0 66.2648
-0.000490092 0.00321051 0 1704.59
0.00945115 0.0288751 0 17.7008
-0.00016434 0.00272067 0 87097.1
-0.00797941 0.0222445 0 12.8741
-4.01564e-005 0.00301654 0 50636.6
-0.00180498 0.00506765 0 1869.37
-0.000161305 0.00301261 0 1771.32
-0.000482063 0.00316965 0 1862.94
-0.000942791 0.00378901 0 1531.21
-0.000134053 0.00282435 0 83430.4
0.000242746 0.000963685 0 95008.1
0.00525461 0.0274919 0 93.4537
0.00306352 0.0179257 0 81.4809
-0.000120066 0.00324295 0 6283.68
-0.00319507 0.0125029 0 78.2662
-0.000290892 0.00233844 0 91559.8
0.00159844 0.00482417 0 1620.39
0.00787978 0.0236538 0 15.0559
0.00145057 0.0259009 0 203.31
-0.000336257 0.00619409 0 202.341
-0.000333917 0.00172186 0 93279.8
0.00577509 0.0216659 0 25.5513
0.000667048 0.00332313 0 1947.7
0.00248969 0.00807562 0 998.41
-0.00160944 0.00467215 0 1863.33
1.98969e-005 0.00242157 0 90057
0.000286635 0.0021356 0 92204.5
-0.00161117 0.00618199 0 964.128
7.54635e-005 0.00268391 0 86584
0.00101663 0.00497361 0 278.308
9.78423e-005 0.00320089 0 8763.92
-0.000282098 0.0245537 0 235.165
0.00160534 0.0053807 0 1231.12
0.000645555 0.00426047 0 540.738
0.000344665 0.00191282 0 92881.7
-4.37224e-005 0.0030135 0 51322.5
0.000410526 0.00592784 0 230.77
-0.00161438 0.00462874 0 1890.57
0.000197339 0.00307463 0 1745.5
-0.00787948 0.0250527 0 16.3748
0.000365567 0.000836364 0 96205.2
0.000428529 0.0031113 0 1865.91
6.29689e-005 0.00280138 0 82726.3
-0.00260928 0.0115127 0 641.145
0.00511854 0.0182191 0 28.9292
-0.000191506 0.0013612 0 93719.2
0.000255298 0.00234631 0 91255.2
7.80872e-005 0.00285378 0 80399.1
-6.93966e-006 0.00361778 0 2446.84
-0.000112834 0.00273034 0 85866.3
-0.000151306 0.00308356 0 3933.21
0.000794921 0.00339323 0 2045.72
0.000120559 0.00308016 0 7887.52
-0.00060963 0.000994212 0 96717.4
-0.000187211 0.00375918 0 1477.45
-0.000179749 0.00239602 0 90694.3
0.000583853 0.00320912 0 2062.96
-0.000220391 0.00307379 0 1711.71
-3.20721e-005 0.00313154 0 19893.4
-0.00240166 0.00829286 0 942.398
-0.000107553 0.0032363 0 6991.63
0.000485775 0.00324734 0 1462.8
-1.6528e-005 0.00283252 0 80470.2
0.000388916 0.00319175 0 1375.49
-0.000191501 0.000101552 0 172367
-0.00244196 0.00780076 0 1039.09
-0.000237142 0.00223825 0 91722.7
-0.00179252 0.00511195 0 1835.49
7.86645e-005 0.00300926 0 45821.4
-0.00578012 0.0268724 0 73.6567
-0.00101007 0.00801211 0 138.336
0.000363332 0.00337974 0 1468.48
0.000391279 0.00186159 0 93082.1
0.000433244 0.00317308 0 1703.66
0.00161612 0.00543442 0 1225.05
-0.00207993 0.00693738 0 1107.32
0.000483914 0.00474879 0 449.382
0.000802557 6.40842e-005 0 131893
0.00066144 0.00330597 0 1987.32
0.00141767 0.0197289 0 348.198
-0.000651775 0.00329699 0 1968.7
0.000282152 0.00304241 0 1664.15
-0.000357054 0.00319624 0 1294.21
-0.00178284 0.00623412 0 1126.44
3.8992e-005 0.00380209 0 1627.8
-0.00100109 0.0210667 0 366.42
0.000165033 0.00158259 0 93226
0.00864187 0.0174253 0 18.2267
0.00315453 0.0128329 0 95.8431
-8.64597e-005 0.00318341 0 10033
-0.000259494 0.0126492 0 253.989
0.000466396 0.000355167 0 133736
0.000246728 0.00318708 0 2237.63
-0.000724122 0.000493878 0 104223
-0.00236534 0.0089472 0 762.994
-0.00585899 0.0184819 0 21.2726
-0.000109395 0.00425783 0 804.197
-0.000225082 0.00307869 0 1685.41
0.00116126 0.00383867 0 2177.59
0.000146244 0.00305529 0 2972.11
0.000106639 0.00285591 0 81081.3
0.00516349 0.0142403 0 18.3088
-0.000547118 0.0281975 0 165.827
-0.00314055 0.0188201 0 65.1933
6.39205e-005 0.0034062 0 4250.21
0.000746714 0.00049437 0 104480
0.00226648 0.0258744 0 177.772
-0.000137355 0.00283875 0 82783.4
0.00173233 0.0108179 0 519.643
-0.000334456 0.00625618 0 202.416
-0.000652252 0.00338145 0 1551.73
-6.89277e-005 0.00306466 0 25144.5
0.000126795 0.00304178 0 4342.23
0.00478399 0.0277755 0 104.443
0.000516287 0.0229306 0 312.203
5.89116e-005 0.00254342 0 88815.9
-0.00795861 0.0246948 0 16.6096
0.00133689 0.00999394 0 417.859
-0.000118825 0.0220921 0 367.057
6.34909e-005 0.0107046 0 67.4892
-0.000946741 0.00381309 0 1487.96
0.00581241 0.0241952 0 26.0074
-0.00487736 0.01991 0 34.6269
0.00170829 0.0256098 0 207.09
9.98067e-005 0.00316224 0 9787.89
0.00308063 0.0142797 0 99.8723
-0.000279242 0.00307977 0 1697.08
-0.000183934 0.00303725 0 1781.78
7.83288e-005 0.00286324 0 79574.8
-0.000440884 0.00514493 0 320.583
0.000455558 0.00477565 0 435.937
0.00520625 0.0221693 0 31.109
-0.00179507 0.00722781 0 825.22
5.54873e-005 0.00266826 0 86774.5
-0.00157971 0.00456195 0 1905.34
4.18607e-005 0.00302762 0 46340.8
-0.000194972 5.19224e-005 0 173648
-0.000846289 0.00342394 0 2242.85
-0.00105965 0.00823661 0 177.529
0.000163413 0.00479131 0 469.185
-8.2874e-005 0.00288534 0 78235.3
0.00157378 0.00552232 0 1088.76
-7.66839e-005 0.00293931 0 72187.8
0.000101978 0.0109948 0 68.9752
-0.000363872 0.00601296 0 220.017
0.000117978 0.00287815 0 80289.4
0.000219153 0.00318835 0 2687.75
-0.00163196 0.00449872 0 2043.09
-0.000221409 0.00303399 0 1701
-0.000370966 0.0244074 0 244.176
-0.000466554 0.00315829 0 1832.46
0.000396164 0.00331941 0 1165.42
-0.00482666 0.0238063 0 34.4889
0.00133411 0.00522841 0 791.334
-0.00267568 0.00982141 0 857.898
-0.000480207 0.0219659 0 363.982
0.00177473 0.0106071 0 539.948
0.000428512 0.00597987 0 230.628
0.00330832 0.0202369 0 60.1976
-0.00036699 0.012473 0 238.276
-0.000901486 0.00347959 0 2275.11
-9.70158e-005 0.00294708 0 72317.7
-0.00110466 0.0144253 0 376.467
-0.00107199 0.0143087 0 374.602
0.000113095 0.0030798 0 9181.63
0.000776547 0.0117402 0 295.353
-0.000196596 0.00302496 0 1654.8
-0.00581483 0.0148124 0 14.6308
0.000125326 0.00308478 0 7398.33
-0.00172589 0.0230235 0 253.434
-0.00123798 0.0114294 0 360.379
-0.000106038 0.00301072 0 5331.21
7.68012e-005 0.00277918 0 83798.6
-0.000218387 0.00226751 0 91552.5
0.00288382 0.0120736 0 424.273
0.000136685 0.00272066 0 86492.3
0.00126396 0.00994364 0 408.607
0.000169734 0.00323168 0 4459.29
3.33298e-005 0.00296283 0 66377.3
7.38909e-005 0.00285244 0 80357.1
0.00226662 0.00684142 0 1210.29
-4.80444e-005 0.00288948 0 76755.5
0.000117291 0.00304527 0 6509.09
0.00044057 0.00316393 0 1759.26
0.00025781 0.000139806 0 166349
-0.000553437 0.0115383 0 244.351
0.00174054 0.0109254 0 522.618
-0.00657824 0.0304887 0 69.3703
-0.00287878 0.0309438 0 113.959
-1.74214e-005 0.00292383 0 72367.1
0.000417861 0.00311152 0 1869.72
-0.000158816 0.00302837 0 1825.31
0.000540608 0.00339996 0 900.062
0.00322243 0.0179545 0 70.5368
-0.000159371 0.0013528 0 93683.1
0.000126077 0.0159893 0 793.306
-0.00432652 0.0294311 0 109.95
0.0015673 0.00546801 0 1109.07
-5.0904e-005 0.00292621 0 72737.3
-0.000106737 0.00293051 0 75032.9
0.00275932 0.0110589 0 684.174
0.000556951 0.00340784 0 908.326
0.000399007 0.0063813 0 192.395
-4.55764e-005 0.00288684 0 76958.6
5.78688e-005 0.00240298 0 90196.1
-0.00135948 0.0128543 0 434.369
0.00105587 0.00489705 0 295.666
-0.00180772 0.00736401 0 816.568
8.62884e-005 0.0107917 0 67.6803
-1.73838e-005 0.00299616 0 58199.5
-0.000559779 0.00402893 0 689.686
-0.000129894 0.00339006 0 3789.55
-0.00108645 0.0209701 0 371.606
-0.000355289 0.00318516 0 1333.75
6.75287e-005 0.00268766 0 86394.1
-1.6399e-005 0.00282695 0 80838
0.000375645 0.00184967 0 93088.5
0.000226595 0.00318087 0 2520.8
-0.00157723 0.0197887 0 290.433
0.000153682 0.00302297 0 1618.5
-0.000983791 0.00376429 0 1740.49
0.00320404 0.0139037 0 88.4096
-0.000399729 0.0051532 0 353.166
-8.43671e-005 0.0028893 0 77963.6
0.00153091 0.0204307 0 343.234
0.0023948 0.0125217 0 558.081
0.000662239 0.00525468 0 310.536
-0.00103759 0.0179087 0 419.086
-0.00194218 0.00558429 0 1548.04
-0.000960129 0.00376594 0 1651.1
-0.000309837 0.00306474 0 1784.9
0.00162461 0.00920594 0 540.109
0.00346181 0.0203111 0 56.0812
0.000412094 0.000782235 0 97048
4.10836e-005 0.00290739 0 74763.9
0.00107752 0.00513333 0 268.811
-0.00139776 0.00696247 0 491.13
5.83714e-005 0.0023895 0 90320.4
0.000501828 0.0119171 0 247.243
-2.97555e-005 0.00300349 0 55631.3
0.00113092 0.00612109 0 194.375
3.11664e-005 0.00285722 0 79063.6
-0.000756348 0.0223669 0 324.226
0.000606022 0.00322532 0 2100.61
0.00858419 0.0213223 0 11.4117
0.00228739 0.00873166 0 853.346
-0.00330691 0.0124678 0 56.5057
-0.00135503 0.018735 0 315.648
-0.00782909 0.0173425 0 12.9976
0.000179373 0.00168518 0 93008.9
0.000181353 0.0228576 0 319.159
0.00116853 0.00608209 0 204.99
0.00534216 0.0272787 0 91.3955
0.000808836 0.00340365 0 2067.01
-0.00176706 0.00728799 0 809.136
0.000366125 0.00308127 0 1825.29
0.000142062 0.00271694 0 86633.6
0.000456136 0.0264018 0 199.779
0.000149779 0.00301624 0 1600.36
8.09965e-005 0.015903 0 792.518
3.07264e-005 0.00286231 0 78687.7
-0.000148146 0.00339011 0 3523.97
-0.0064378 0.0277565 0 64.4974
0.00072806 0.00532362 0 282.118
-0.00065633 0.00335203 0 1737.05
-0.000360464 0.000878987 0 95851.4
-9.67537e-005 0.00295742 0 70767.3
-0.000484113 0.00948683 0 87.3866
-0.000565445 0.00399845 0 704.56
0.000588623 0.00111811 0 95930.4
0.000130395 0.00304539 0 4355.21
0.000107754 0.00285149 0 81349.9
0.00165731 0.0250536 0 214.85
0.00285988 0.0119675 0 530.961
-9.54028e-005 0.00428588 0 780.154
-0.000124414 0.00317156 0 7438.79
-0.00814733 0.0285856 0 32.2717
-0.000216377 0.0031251 0 2183.42
0.00549751 0.012219 0 14.198
-0.00550796 0.012201 0 12.2218
0.00287309 0.0132504 0 155.25
0.000396043 0.00090361 0 95987.7
-9.96587e-005 0.00294535 0 72778.8
-0.00215947 0.00674928 0 1203.24
-0.000289559 0.000893856 0 95388.2
0.00184728 0.00894591 0 607.866
-0.000404895 0.00611192 0 204.255
-0.00085135 0.00350535 0 2139.1
3.34633e-006 0.00298331 0 61481.4
0.00378526 0.0199019 0 50.7869
-0.000528492 0.024373 0 251.187
-0.000842118 0.0116133 0 300.824
-0.00298148 0.0188909 0 69.2622
5.9556e-005 0.0025331 0 88951.3
-0.000468824 0.00121303 0 95027.5
9.1581e-005 0.0171817 0 839.901
-0.00127026 0.0113439 0 367.044
0.00402234 0.0130084 0 21.6215
-0.000363163 0.00496329 0 399.578
-0.00609252 0.0268039 0 62.9725
0.000283831 0.00172705 0 93133.6
-0.000884834 0.00452052 0 364.452
0.000104251 0.00312707 0 10408.8
0.00028648 0.000908897 0 95449.5
0.00627587 0.0218045 0 22.9903
0.000138189 0.00301242 0 1688.68
-8.45766e-005 0.00300744 0 43881.3
-0.000367296 0.0115469 0 188.948
4.43738e-005 0.00303088 0 44552.3
0.00481648 0.0179238 0 34.1504
0.00149749 0.00436073 0 1916.47
0.00128386 0.00510424 0 689.023
-0.000137123 0.00279496 0 84498.7
0.00010392 0.0048879 0 436.828
-0.00091848 7.16259e-005 0 118857
3.54985e-006 0.00298714 0 60527.3
0.000749152 0.00426831 0 461.513
-0.000130195 0.00286367 0 81223.8
0.00513916 0.0264131 0 95.3364
-0.00145383 0.00693267 0 573.979
-0.000170314 0.00271408 0 87050.4
0.000708754 0.00344963 0 1585.29
0.000173403 0.0026398 0 88306.3
0.00102924 0.00397184 0 1330.94
7.04719e-005 0.00292897 0 73396
-0.000154347 0.00277069 0 85384.5
0.000152777 0.00306484 0 2961.51
-0.0057264 0.0155753 0 14.1456
-0.00516063 0.0124211 0 12.5483
-0.000727401 0.00332353 0 2109.8
0.00177507 0.00499121 0 1690.54
-0.00104148 0.00729487 0 137.307
8.03056e-005 0.00285902 0 79935.3
0.000619507 0.00322392 0 2091.74
0.000491741 0.00344599 0 917.658
-8.64345e-005 0.00319528 0 9558.11
0.000495863 0.00327729 0 1324.41
0.00629165 0.0165428 0 14.533
-0.000348261 0.00373379 0 1195.07
0.00695359 0.012557 0 19.607
-0.00614658 0.0186042 0 19.1778
0.00446424 0.0221677 0 40.3794
-0.000789844 0.00391708 0 527.347
0.000117774 0.00196522 0 92294.3
-0.000255362 0.0148691 0 669.486
-0.00503812 0.0284552 0 97.1548
-0.000107009 0.00253653 0 89152.6
0.000146628 0.00274959 0 86003.8
0.00773255 0.0309094 0 60.5936
0.000159147 0.00499252 0 406.301
0.000514649 0.00313677 0 2023.15
0.00101358 0.00492618 0 278.89
-0.00010231 0.00251506 0 89332.1
-0.000149253 0.0149017 0 741.847
-0.0026764 0.0106555 0 762.291
-0.000401914 0.00497223 0 366.556
-9.9778e-005 0.00250395 0 89462.7
-0.000167489 0.00307565 0 2653.66
0.00547148 0.0254757 0 62.7489
6.86885e-005 0.00304125 0 32306.4
-0.00443178 0.028435 0 107.517
-9.60567e-005 0.00299261 0 58225.4
0.00605816 0.0243911 0 25.5808
-0.00166852 0.0218177 0 286.172
3.51271e-005 0.00306949 0 32685.3
0.00934401 0.0252145 0 10.8772
0.000689131 0.0161709 0 542.02
-0.00185288 0.0231304 0 237.868
-0.000635695 0.0147353 0 393.374
0.000424951 0.000378919 0 135513
3.11571e-005 0.00341221 0 4182.8
-0.00451594 0.0239154 0 52.251
4.55634e-005 0.00300278 0 55455
-0.000190882 0.0026229 0 88796.2
-0.00293428 0.0314144 0 115.01
0.000192455 0.0109275 0 69.6561
-7.99306e-005 0.00301235 0 42086.7
-0.000103784 0.019352 0 613.506
0.000298059 0.00179298 0 93020.5
0.000318272 0.00306073 0 1841.36
4.79498e-005 0.00267219 0 86700.7
0.000550505 0.00439983 0 533.778
-6.64966e-005 0.00296368 0 67235.6
-0.000353929 0.0037557 0 1167.71
0.00136689 0.00417221 0 2016.27
0.000288631 0.0043673 0 659.168
-0.000116817 0.00316526 0 8193.66
0.000228982 0.00477361 0 461.145
-0.00010849 0.00292752 0 75761.3
0.00158742 0.0252298 0 214.614
0.00029744 0.00214644 0 92213.2
0.00012001 0.0179918 0 791.268
-2.8464e-005 0.00302556 0 48267
-0.000121369 0.00301027 0 2124.62
-0.000613293 0.003423 0 1018.03
0.000416492 0.000739339 0 97888.8
0.00607599 0.0132862 0 17.0358
-0.000118426 0.00301015 0 2130.33
0.000338231 0.0030745 0 1882.04
-0.000760719 0.00047075 0 105175
-0.000159712 0.00339978 0 3449.37
0.00621185 0.0259584 0 36.3305
-0.000407926 0.00403608 0 779.647
5.21801e-005 0.0048277 0 468.94
0.00820777 0.0174274 0 17.527
-0.000651027 0.00328042 0 2000.26
-8.91944e-005 0.00296269 0 69174.5
-0.000640908 0.0223311 0 332.379
0.00498206 0.0148716 0 21.0718
-0.000133404 0.00280466 0 84004.6
-0.00284514 0.0101497 0 845.391
0.00015129 0.00247549 0 89993.2
0.0036537 0.0164932 0 60.0335
0.000170347 0.00269813 0 87794.1
-0.00192463 0.00759706 0 847.597
-0.00146113 0.00452985 0 1758
0.00164564 0.0109866 0 498.804
0.00153691 0.0307746 0 130.119
0.000402223 0.00321336 0 1289
-0.000561587 0.00118082 0 95411.5
-0.00107178 0.00734408 0 138.269
-4.6988e-005 0.00292472 0 72836.8
0.000121356 0.00262665 0 88044
-0.00180667 0.021881 0 268.61
-0.000301986 0.0030856 0 1717.97
-0.000116548 0.00289513 0 79163.3
0.000683718 0.0116885 0 272.038
-0.000354426 0.00170815 0 93355.2
0.000168525 0.00302989 0 1643.26
0.0016288 0.00554363 0 1133.86
-0.000454254 0.00780077 0 117.985
9.99188e-005 0.00299126 0 61625.6
-0.000923631 0.00351832 0 2182.52
-0.000513771 0.00531417 0 290.468
-0.000134682 0.0174176 0 811.657
0.000245462 0.00302872 0 1614.26
-0.00010594 0.00296983 0 68589.6
0.000263028 0.00390471 0 1144.98
0.000668464 0.00324245 0 2029.46
-0.00016736 0.00267447 0 87731.7
9.47415e-005 0.00371123 0 1839.12
0.00421743 0.0282356 0 117.09
0.000517536 0.00330043 0 1289.86
7.86006e-005 0.00301308 0 42669.9
-0.00150253 0.0233222 0 265.956
3.50244e-005 0.00343033 0 4148.9
0.00521285 0.0268086 0 92.5535
-2.25255e-005 0.00298419 0 61228.2
0.000210866 0.0048041 0 450.443
-0.00060708 0.0165096 0 640.795
0.00212885 0.0061951 0 1371.27
-2.66592e-005 0.00312601 0 21203.2
-0.00828018 0.0153779 0 17.9346
-0.00170476 0.0244237 0 223.523
-2.90915e-005 0.00298341 0 61424.8
-0.00185381 0.0061466 0 1185.11
3.45393e-006 0.00277635 0 83311.8
0.00147734 0.00677235 0 574.702
0.00789347 0.0314466 0 61.4797
-0.00613399 0.0273266 0 65.8936
6.50073e-005 0.00218408 0 91480.1
-0.00147779 0.0231807 0 265.179
-0.000188401 0.00264524 0 88611.5
-0.00075172 0.0114273 0 283.607
0.00122718 0.0181316 0 291.876
-0.000212778 0.0261997 0 201.564
-0.000849183 0.00348376 0 2224.03
0.00262104 0.0134155 0 236.765
1.27232e-005 0.00293823 0 70183.3
0.000154311 0.000143575 0 168170
0.00227939 0.00864795 0 861.084
-0.000341661 0.00336084 0 1540.64
-0.00187213 0.00737965 0 841.07
-0.000325102 0.00324186 0 1508.73
0.00106283 0.00405371 0 1356.36
0.00306202 0.0160229 0 99.3102
-0.00125502 0.0209796 0 348.108
-0.000371653 0.00205944 0 92655.7
-6.26965e-005 0.00321945 0 9715.49
0.00162374 0.026075 0 196.894
2.10167e-006 0.00278249 0 83012.8
-0.0055484 0.0286456 0 90.4829
0.00015094 0.0013019 0 93734.6
0.000698722 0.0033001 0 2211.39
-0.000209116 0.00313022 0 2429.76
0.000178301 0.00263421 0 88501.6
-0.000170601 0.00241911 0 90526.5
6.51233e-005 0.00278293 0 83487.3
0.000796117 0.00012178 0 125783
-0.00585119 0.020535 0 24.1319
-0.000609924 0.00122633 0 95279
-0.000102624 0.00304973 0 12312.2
0.00514232 0.0257801 0 88.3705
-0.00828702 0.0225688 0 12.8206
-0.000614799 0.00344241 0 954.816
-0.00151189 0.0188183 0 243.89
-3.25492e-005 0.0029848 0 61028.6
0.00054607 0.027935 0 161.415
-0.000162612 0.00307065 0 2767.9
0.00170386 0.00536783 0 1396.09
0.000122657 0.00246052 0 89988.8
0.000114118 0.00372299 0 1761.33
0.000279019 0.00175174 0 93076.8
-0.00259204 0.0130168 0 304.405
0.0051502 0.0128645 0 15.2375
-9.8562e-005 0.00342344 0 3621.44
-0.000685127 0.00529569 0 291.25
-0.000466511 0.00313725 0 1847.37
0.000190709 0.00268308 0 88134.7
0.000395417 0.00366064 0 1155.33
0.000169582 0.00301879 0 1579.72
-0.00265958 0.00992127 0 848.68
-0.00519759 0.0137459 0 15.1283
-0.000114222 0.00289247 0 79283.7
2.13384e-005 0.00287136 0 77876.4
0.000112396 0.0030073 0 2161.59
-0.000364131 0.0125976 0 238.981
0.000638801 0.0281464 0 161.626
-7.63196e-005 0.00301224 0 43600.6
0.00647815 0.0133628 0 19.7521
0.000321473 0.00338261 0 1747.18
-0.00275906 0.0101546 0 830.507
-0.00198739 0.00761012 0 877.014
-0.00766429 0.0300439 0 58.3922
-0.000176722 0.00312882 0 3649.17
-0.00800327 0.0218525 0 13.0201
0.00020237 0.00307009 0 1661.07
-0.000414328 0.00346374 0 1174.44
-0.000653425 0.00100717 0 96796.5
0.000805931 0.0226935 0 328.453