# U  FACE_DATA 23640
#  x  y  z  U_x  U_y  U_z  
-0.00296834 0.0159323 0 -679.146 2465.21 0
0.000794309 0.0100339 0 -215.001 2883.28 0
0.00690979 0.0130745 0 455.411 358.492 0
0.000158008 0.0018211 0 -18.429 127.496 0
-0.000662165 0.0113619 0 403.685 2649.72 0
-0.00203768 0.00587959 0 -472.792 1592.17 0
-0.000220137 0.00748479 0 -139.997 2787.15 0
0.00214531 0.0125841 0 -202.77 2371.62 0
-0.00164167 0.00702341 0 -254.705 2503.26 0
0.00020958 0.00306993 0 1996.83 752.783 0
4.59799e-005 0.00273939 0 -35.0462 439.746 0
0.00075606 0.00524313 0 962.659 2560.81 0
0.00107075 0.0257944 0 280.76 2640.63 0
-0.000458708 0.0115994 0 386.523 2637.06 0
-0.000900467 0.00350322 0 -975.751 996.61 0
-0.00222355 0.00655891 0 -272.008 1487.6 0
0.00442703 0.0182294 0 1095.12 2457.42 0
7.09705e-005 0.00299924 0 -94.7604 1056.21 0
-2.45517e-005 0.00292714 0 42.4244 745.848 0
-0.000543852 0.00394831 0 -1409.04 2168.9 0
7.98376e-005 0.00283498 0 -86.2447 529.03 0
0.00510868 0.0124654 0 524.759 201.44 0
7.37866e-005 0.00284217 0 -83.1472 543.343 0
-0.000122136 0.00287943 0 133.024 484.613 0
0.00117211 0.0120328 0 -373.127 2579.77 0
0.000340217 0.00636002 0 296.028 2737.15 0
-1.62375e-005 0.00331413 0 -101.823 2141.08 0
0.000288499 0.00391811 0 818.588 2376.83 0
0.00604323 0.0215883 0 1240.67 2449.58 0
0.0015748 0.0199438 0 527.133 2464.29 0
0.000642306 0.0286533 0 134.174 2684.63 0
-0.000788091 0.000235815 0 -5.16773 5.05914 0
8.45076e-005 0.00283429 0 -90.279 524.288 0
-0.000766033 0.00453527 0 -1306.36 2315.57 0
-0.000556446 0.00360452 0 -1805.55 1663.98 0
-0.000694613 0.00330261 0 -1089.1 782.272 0
0.00425461 0.0181246 0 1036 2429.1 0
0.00563158 0.0299784 0 1060.55 2436.23 0
0.00374311 0.0125452 0 1257.16 585.366 0
-0.000168184 0.00269727 0 92.6887 336.289 0
0.00100487 0.00483203 0 1396.72 2297.39 0
-0.00170325 0.00704586 0 -244.322 2440.44 0
-0.00047461 0.0123053 0 462.268 2634.23 0
-0.00401905 0.0129379 0 -1455.9 959.884 0
0.000128446 0.00148328 0 -12.0472 81.4023 0
0.000108141 0.00315803 0 934.03 1709.85 0
0.00299545 0.0176096 0 562.949 2634.92 0
0.00122698 0.00708374 0 579.415 2643.43 0
0.000214903 0.00307399 0 1997.47 760.924 0
0.00225142 0.0126586 0 -171.724 2344.09 0
0.000204708 0.00068009 0 3.4565 18.9822 0
4.25297e-005 0.00299727 0 -57.7402 1029.21 0
-0.000477288 0.00315875 0 -1247.59 651.819 0
-0.00378992 0.02149 0 -677.931 2568.66 0
0.000139812 0.00181138 0 -16.1566 125.621 0
0.000208917 0.00302796 0 603.682 139.164 0
-0.00160791 0.0049468 0 -777.93 2031.12 0
0.000941143 0.00995448 0 -244.835 2630.67 0
8.9442e-006 0.010956 0 42.6702 2851.88 0
-0.000434056 0.00133506 0 29.7884 92.5794 0
0.000566946 0.0289715 0 97.6869 2673.1 0
-7.40414e-005 0.003214 0 -584.476 1910.06 0
-0.000145493 0.00239699 0 40.7931 245.116 0
3.42483e-005 0.00298986 0 -55.6622 987.151 0
0.000575544 0.00987125 0 200.62 2831.02 0
3.71363e-005 0.00299095 0 -59.3813 993.7 0
-0.00247102 0.00772987 0 -222.877 1503.84 0
0.00096928 0.0118325 0 -372.961 2576.6 0
-9.22697e-005 0.00299969 0 110.555 1096.15 0
-0.000570617 0.0122505 0 449.139 2640.31 0
-0.000211411 0.00254812 0 74.9687 258.327 0
-0.000765289 0.00457715 0 -1236.17 2306.84 0
8.13068e-005 0.00294139 0 -143.394 721.534 0
-0.00437678 0.0203082 0 -883.517 2534.8 0
0.00226862 0.00661101 0 377.895 1582.66 0
-0.000832194 0.000220534 0 -6.8886 6.55368 0
-0.000164868 0.00301134 0 -210.731 38.4882 0
0.0012393 0.0259768 0 306.759 2634.38 0
-2.48279e-005 0.00292318 0 42.6314 734.596 0
0.000116572 0.00245177 0 -36.7036 265.638 0
9.77655e-005 0.00313112 0 856.044 1651.52 0
0.000279024 0.00328636 0 1683 1541.84 0
-5.75605e-005 0.0116355 0 179.482 2787.84 0
-7.47936e-005 0.0117342 0 200.806 2782.67 0
0.000518168 0.00993111 0 174.453 2850.61 0
-0.000154608 0.0030256 0 -1384.29 392.961 0
4.53443e-005 0.00299839 0 -60.6151 1037.62 0
-0.000161071 0.0027724 0 90.1526 303.873 0
0.000104836 0.00293916 0 -165.968 622.456 0
-0.00100104 0.00361077 0 -957.258 1037.06 0
-0.000510005 0.00921774 0 -224.917 2830.07 0
0.00100295 0.0100141 0 -264.818 2640.97 0
-0.000646084 0.00336418 0 -1720.67 1321.15 0
6.96906e-005 0.00293287 0 -120.698 719.592 0
-1.67264e-005 0.00300289 0 15.3075 1056.47 0
0.000173509 0.0227352 0 42.1557 2610.17 0
3.17037e-005 0.00298455 0 -55.0537 960.222 0
0.000312244 0.00306502 0 828.362 266.831 0
-0.00212604 0.00906512 0 -79.3735 2367.32 0
-0.00049218 0.00322389 0 -1847.72 1092.58 0
0.000341345 0.00323843 0 1993.35 1171.62 0
-0.00385942 0.0216496 0 -692.775 2571.43 0
-0.000125834 0.0028813 0 130.193 447.35 0
0.00524627 0.0255212 0 1273.01 2473.75 0
0.000713781 0.0036837 0 1906.98 1601.89 0
0.00601727 0.0299149 0 1105.84 2408.88 0
-0.000344095 0.00203632 0 42.9921 155.011 0
-0.0047341 0.0239481 0 -884.621 2512.36 0
-0.000460773 0.00539436 0 -547.407 2654.1 0
-0.00196148 0.00905338 0 -44.6164 2424.6 0
0.00143807 0.0303782 0 269.986 2680.67 0
7.94637e-005 0.00293894 0 -138.457 717.895 0
0.00013473 0.00481908 0 223.397 2634 0
0.00105264 0.00484794 0 1390.12 2278.94 0
0.000112877 0.0030262 0 1551.68 1297.35 0
-0.00781161 0.0282885 0 -1350.66 2316.22 0
-0.000846622 0.00344471 0 -961.997 931.54 0
-0.00206201 0.0306837 0 -398.047 2679.35 0
-0.00313594 0.0160362 0 -719.647 2434.73 0
0.00144289 0.0198776 0 485.28 2470.48 0
-0.000135136 0.00286502 0 102.626 357.464 0
-0.000205101 0.000950881 0 2.42761 31.6385 0
0.000372212 0.00308853 0 743.775 354.735 0
0.000370404 0.000795868 0 0.118349 31.7734 0
0.000201681 0.00347815 0 981.715 2108.31 0
-0.000147808 0.00278598 0 109.34 384.602 0
0.000218103 0.000637733 0 4.08163 16.0499 0
0.000195722 0.00313377 0 1815.27 1213.33 0
-0.00203813 0.00594128 0 -455.387 1684.18 0
0.00112067 0.00510142 0 1321.94 2330.57 0
5.16573e-005 0.00373385 0 204.107 2429.92 0
0.000381501 0.00336875 0 1821.15 1491.63 0
0.000860715 0.0258401 0 197.35 2646.75 0
-0.000116556 0.00339842 0 -681.854 2177.55 0
-0.00513668 0.0257477 0 -1195.6 2358.58 0
-0.000162894 0.00277847 0 76.1539 258.897 0
8.27341e-005 0.00277738 0 -70.6214 463 0
0.0010674 0.0118759 0 -370.481 2576.56 0
-4.09992e-005 0.00275121 0 32.9432 451.437 0
3.29665e-005 0.00297369 0 -61.373 908.016 0
-0.00204547 0.0090065 0 -74.8332 2389.7 0
-0.00160474 0.0048986 0 -782.972 1965.31 0
8.25825e-005 0.00294819 0 -151.262 738.487 0
4.00473e-005 0.00273627 0 -30.3323 437.686 0
-9.41642e-005 0.00295571 0 171.872 721.874 0
0.00150619 0.00997327 0 -135.016 2563.69 0
8.22134e-005 0.00268838 0 -51.368 389.242 0
-0.000160791 0.00267895 0 86.8045 340.244 0
-0.000596112 0.00909085 0 -251.892 2826.82 0
-9.31423e-005 0.00299701 0 159.256 1015.54 0
0.00235681 0.0126226 0 -112.279 2306.3 0
0.00203765 0.00557212 0 251.878 990.769 0
-0.000165794 0.0115731 0 258.089 2751.01 0
6.0159e-005 0.0021996 0 -11.5738 196.469 0
0.000371981 0.00362464 0 1382.43 2047.36 0
-0.00733688 0.029685 0 -1317.79 2318.04 0
-0.000180414 0.00743151 0 -129.04 2796.44 0
-0.000357207 0.004885 0 -508.382 2605.28 0
0.00253943 0.00813968 0 209.771 1660.99 0
-1.29377e-005 0.00332967 0 -75.7992 2133.7 0
-0.0010235 0.00361199 0 -783.58 863.351 0
-0.000285329 0.0030748 0 -1470.28 504.397 0
-0.000681311 0.00329291 0 -1115.64 782.953 0
-0.00260727 0.00895038 0 -202.592 1754.99 0
0.00788717 0.0276195 0 1293.15 2384.14 0
0.0089704 0.0287411 0 1385.86 2364.51 0
-0.000270534 0.00232157 0 57.3807 198.456 0
-0.00014416 0.00312601 0 -1364.67 1457.34 0
-0.000337662 0.00201762 0 41.6053 154.524 0
0.0003962 0.00337513 0 1853.37 1500.22 0
0.00121317 0.00701782 0 589.988 2655.6 0
0.000116206 0.00302915 0 1678.16 1226.4 0
0.00225197 0.00666935 0 356.281 1642.05 0
-0.000507665 0.00548922 0 -589.602 2649.84 0
-0.000231863 0.00226746 0 46.749 202.305 0
0.000244361 0.00226851 0 -48.0211 198.701 0
0.00111028 0.00505498 0 1331.13 2328.74 0
0.000121223 0.00304184 0 1482.95 1113.15 0
0.00012049 0.00243938 0 -37.0827 260.905 0
-0.0013386 0.0186068 0 -293.373 2528.24 0
0.000102064 0.00149733 0 -9.88686 82.4062 0
0.000147362 0.00301363 0 727.389 160.784 0
0.00106981 0.0119939 0 -384.981 2575.21 0
-0.000365953 0.00411169 0 -905.588 2423.38 0
0.00557444 0.020358 0 1225.22 2406.17 0
4.86089e-005 0.00307386 0 250.951 1504.77 0
-0.000177413 0.0035472 0 -794.073 2224.47 0
-0.000632994 0.00339325 0 -1857.15 1371.93 0
0.000487307 0.00130985 0 -34.204 101.84 0
-0.000349424 0.00402777 0 -896.174 2401.36 0
-0.00177251 0.00629586 0 -395.518 2253.99 0
-7.92525e-005 0.00273084 0 57.6909 422.729 0
0.000241714 0.00100077 0 -7.66816 38.8377 0
-0.000154516 0.0114773 0 225.796 2763.87 0
0.00502442 0.0222916 0 914.399 2500.5 0
-0.000166546 0.00272686 0 94.6682 333.123 0
0.000707598 0.00365891 0 1917.97 1577.62 0
-0.00157418 0.0046046 0 -715.702 1593.97 0
0.000122725 0.00301099 0 1131.65 376.602 0
0.000172305 0.00324558 0 1265.61 1747.88 0
7.46185e-006 0.00286175 0 -9.3337 601.934 0
0.00533293 0.0140838 0 1605.84 1108.56 0
0.00520504 0.0284215 0 1058.22 2436.7 0
-0.00170266 0.00713636 0 -242.235 2453.34 0
4.38765e-005 0.00290514 0 -68.405 676.909 0
0.00035679 0.0099507 0 142.158 2845.94 0
0.000120447 0.00300871 0 961.766 325.571 0
7.85992e-005 0.00284146 0 -87.3587 538.489 0
0.000146556 0.00306157 0 1764.14 1104.33 0
-0.000265484 0.00230758 0 54.4932 199.244 0
-0.000558184 0.0114136 0 390.656 2630.27 0
0.000873988 0.011905 0 -391.614 2582.43 0
0.00195145 0.0157285 0 77.5864 2536.6 0
0.000415959 0.00988952 0 164.995 2867.7 0
0.00204861 0.00551694 0 305.499 610.083 0
0.00159497 0.00893937 0 -31.0271 2555.97 0
0.00125366 0.00690066 0 539.895 2637.66 0
-0.000537482 0.00397822 0 -1372.08 2194.73 0
-0.00245206 0.00890865 0 -210.198 2083.6 0
-0.00591638 0.015069 0 -1723.42 1354.95 0
0.00182541 0.0157696 0 -14.3075 2542.1 0
-6.39179e-005 0.00274368 0 49.5313 439.159 0
1.24162e-005 0.00286011 0 -15.38 598.21 0
0.000785526 0.00520879 0 980.38 2525.18 0
0.000119132 0.00288179 0 -136.899 513.762 0
0.000107617 0.00492998 0 152.502 2654.98 0
-0.000398708 0.00617064 0 -371.939 2721.9 0
-0.00031795 0.000861625 0 2.49164 30.2282 0
-0.0054742 0.0145195 0 -1752.33 1301.33 0
-0.00050603 0.0093045 0 -221.65 2826.18 0
-0.00281713 0.0160093 0 -580.107 2498.65 0
-0.00521587 0.0225645 0 -960.813 2459.47 0
0.000631138 0.00410172 0 1391.87 2138.36 0
0.00077675 0.0118594 0 -417.374 2633.52 0
-0.000339893 0.00491785 0 -494.299 2619.86 0
0.000278502 0.0033019 0 1675.18 1593.42 0
-0.000206291 0.0025551 0 72.1702 265.675 0
0.0015782 0.00885327 0 -21.5471 2550.95 0
-0.000601058 0.00917374 0 -249.434 2826.08 0
0.000107852 0.00308374 0 1036.97 1494.82 0
0.000329157 0.00324408 0 1952.76 1219.25 0
-0.000107456 0.0030138 0 -1370.94 1317.82 0
0.000995869 0.00478803 0 1391.97 2279.07 0
-0.00176263 0.00715431 0 -244.446 2399.93 0
0.000133123 0.00190024 0 -16.9319 139.09 0
0.00428452 0.0222831 0 776.6 2624.99 0
0.00249322 0.0134845 0 224.328 2398.46 0
0.000209201 0.00303326 0 904.264 245.212 0
1.124e-005 0.00241342 0 -3.13065 258.23 0
-0.000138897 0.00282521 0 118.487 415.226 0
-0.000422518 0.00130967 0 28.3336 87.9578 0
0.000897928 0.00602889 0 831.75 2615.49 0
0.00296246 0.0177704 0 550.137 2582.2 0
-0.000240922 0.0022558 0 47.0387 198.783 0
0.000161456 0.0106342 0 66.2343 2845 0
-0.000169117 0.00269067 0 91.3857 332.801 0
-0.00600599 0.0132277 0 -834.635 376.336 0
-0.00498542 0.0226529 0 -897.898 2496.61 0
0.00035646 0.00189436 0 -38.6242 140.07 0
0.000360867 0.00193124 0 -40.2035 143.338 0
0.000188008 0.00159518 0 -18.2858 98.0077 0
0.00315697 0.0294361 0 617.683 2597.96 0
0.000380728 0.00331446 0 1960.59 1334.89 0
-0.000407732 0.00541329 0 -472.438 2678.19 0
0.00599218 0.0187772 0 1399.82 2055.48 0
-0.000475668 0.0124289 0 473.252 2641.43 0
9.243e-005 0.00339173 0 512.812 2174.78 0
-0.0022067 0.00902531 0 -101.967 2321.9 0
0.000138287 0.010546 0 67.5951 2848.78 0
-4.59787e-005 0.00300592 0 37.5938 1088.36 0
0.000475334 0.00325723 0 1967.21 1147.82 0
0.0081269 0.0233608 0 1476.18 2213.21 0
-0.000136448 0.00286953 0 94.734 317.766 0
0.000465099 0.00132931 0 -33.0482 99.6937 0
0.000196949 0.00312437 0 1840.24 1158.33 0
-0.000725979 0.00459524 0 -1194.85 2374.87 0
0.00566025 0.0201173 0 1231.23 2383.94 0
-0.000237093 0.000937504 0 3.05493 31.6926 0
-7.15727e-006 0.00298867 0 9.61233 983.635 0
-0.000556128 0.00552312 0 -607.873 2650.41 0
-0.000151452 0.00278159 0 108.734 369.643 0
0.00604583 0.0167381 0 1662.08 1767.44 0
5.44524e-005 0.00307484 0 303.605 1512.79 0
3.5211e-005 0.00270778 0 -24.0956 413.929 0
-0.00210731 0.0068781 0 -348.394 2156.95 0
8.91266e-005 0.00319599 0 706.564 1850.51 0
-0.00242079 0.00974735 0 -19.78 2194.91 0
0.00135885 0.00413507 0 680.104 1184.08 0
-0.00108228 0.00797081 0 -425.577 2709.76 0
3.29303e-005 0.00271504 0 -22.8175 420.189 0
-0.000508078 0.0208168 0 -202.144 2556.7 0
-0.00472826 0.0198065 0 -1013.24 2444.7 0
0.00152826 0.0090827 0 -67.5082 2573.75 0
-0.00252462 0.00897287 0 -216.068 1981.42 0
-4.09377e-005 0.0027578 0 33.7821 457.985 0
-0.00186927 0.0116808 0 250.678 2413.97 0
0.00108447 0.00518193 0 1290.47 2372.3 0
-0.00419392 0.0202211 0 -830.221 2459.65 0
0.000296615 0.00594885 0 294.003 2712.42 0
0.00365557 0.0156923 0 1075.59 2417.42 0
-0.000138643 0.00311989 0 -1316.08 1463.67 0
3.44704e-005 0.00298593 0 -58.957 966.748 0
-0.000249911 0.000891772 0 1.61511 29.2469 0
0.00110337 0.0099601 0 -234.381 2588.11 0
8.04689e-005 0.00279643 0 -73.9118 483.32 0
0.00779157 0.0249956 0 1350.38 2398.63 0
0.000351464 0.00337107 0 1766.83 1576.94 0
-0.00012879 0.00323538 0 -985.596 1867.38 0
0.000155895 0.00168996 0 -16.5008 108.947 0
8.56943e-005 0.00294739 0 -155.543 727.704 0
0.0053023 0.0238774 0 942.161 2590.76 0
0.000238423 0.00318026 0 1814.61 1228.22 0
0.000230406 0.00226533 0 -46.5205 200.734 0
-5.15866e-005 0.00292996 0 89.6395 735.615 0
2.57476e-005 0.00286927 0 -33.8257 611.796 0
0.000105066 0.00340141 0 571.575 2165.51 0
-0.0006343 0.00341198 0 -1885.13 1388.17 0
-0.00683177 0.0130924 0 -604.82 336.471 0
-1.54609e-005 0.00299907 0 16.1288 1035.79 0
-0.00215958 0.00656839 0 -368.9 1891.49 0
0.00301179 0.0141363 0 780.561 2281.51 0
-0.000723924 0.00463742 0 -1191.89 2401.05 0
-0.000555458 0.00358088 0 -1828.78 1635.91 0
0.000287933 0.00394954 0 805.077 2401.05 0
-0.00525881 0.0259389 0 -1184.36 2360.94 0
-0.000235386 0.00314485 0 -1949.5 1079.87 0
-0.000664883 0.00104525 0 36.2437 116.226 0
0.00182857 0.0107598 0 -141.682 2470.26 0
0.00289308 0.0133881 0 646.407 2193.72 0
0.000556851 0.000459359 0 8.83297 10.7712 0
-6.31462e-005 0.00306344 0 -343.774 1474.28 0
0.00204396 0.0126442 0 -232.999 2398.27 0
-0.000369072 0.00408052 0 -917.67 2419.56 0
-0.00018247 0.00378321 0 -598.514 2361.92 0
0.000579156 0.0162179 0 -71.3407 2483.92 0
0.00117061 0.0100074 0 -227.778 2588.29 0
0.000129771 0.00301154 0 992.219 258.55 0
0.00050022 0.00329429 0 1977.93 1201.46 0
-0.00194273 0.0117557 0 243.565 2399.64 0
0.000295066 0.00600891 0 293.176 2712.71 0
-0.000154748 0.0030213 0 -1113.34 305.298 0
8.51353e-005 0.00297491 0 -172.898 829.376 0
0.000370749 0.00364798 0 1349.44 2066.91 0
0.00032381 0.000892659 0 -4.7742 36.0326 0
-0.000114683 0.00273658 0 81.7376 410.286 0
7.10543e-005 0.0030026 0 -78.0948 1090.63 0
-9.6647e-005 0.00324264 0 -728.655 1936.52 0
0.000733896 0.00537107 0 850.517 2564.05 0
0.000155197 0.00494735 0 229.748 2652.28 0
0.000610019 0.00412319 0 1369.65 2192.89 0
0.000353717 0.00194986 0 -40.5278 145.051 0
-0.000244432 0.00314026 0 -1990.11 1021.21 0
-0.00502653 0.0232658 0 -897.715 2552.71 0
-0.00178789 0.0309983 0 -367.511 2688.7 0
-0.000579723 0.00361754 0 -1813.66 1660.07 0
0.00813841 0.0273314 0 1279.17 2456.31 0
-0.002496 0.0131044 0 -107.323 2297.26 0
-0.00431729 0.0290645 0 -864.081 2539.1 0
-0.000157683 0.00240005 0 43.9395 244.543 0
-6.09633e-005 0.00273787 0 45.8632 434.179 0
-0.000172602 0.00356894 0 -753.666 2249.03 0
5.95493e-005 0.00280503 0 -58.0616 503.773 0
3.59382e-005 0.00297531 0 -66.7946 914.008 0
0.0038221 0.0156522 0 1110.08 2383.71 0
0.00151814 0.00899556 0 -60.731 2566.96 0
0.00891208 0.0209237 0 1624.11 1833.05 0
0.00932881 0.0247628 0 1503.86 2198.99 0
0.000401147 0.00319889 0 2018.52 1030.07 0
-1.37134e-005 0.00292236 0 23.5547 735.572 0
-0.00149883 0.0199029 0 -496.751 2480.93 0
-0.000151382 0.00307642 0 -1730.03 1148.87 0
-9.99299e-005 0.00297786 0 180.938 684.953 0
0.00528439 0.0241343 0 942.743 2587.61 0
2.61097e-005 0.00286432 0 -33.4613 602.814 0
0.000206875 0.00349712 0 989.066 2124.14 0
-0.00509797 0.0234717 0 -898.694 2553.41 0
-0.000597722 0.000953511 0 29.2259 86.4035 0
-0.00793898 0.0155863 0 -1170.07 947.181 0
0.00183935 0.0106624 0 -136.462 2467.7 0
7.52069e-005 0.00339368 0 417.552 2193.35 0
-7.77056e-005 0.00294222 0 139.458 735.078 0
-9.8985e-005 0.00297992 0 182.756 710.168 0
0.00161823 0.00911669 0 -41.0486 2542.64 0
8.21842e-005 0.00297527 0 -165.727 843.52 0
-0.00188133 0.00900925 0 -42.2604 2455.06 0
-0.00617827 0.0275965 0 -1256.51 2285.58 0
-0.000490092 0.00321051 0 -1786.23 1040.83 0
0.00945115 0.0288751 0 1455.38 2355.55 0
-0.00016434 0.00272067 0 92.7762 343.34 0
-0.00797941 0.0222445 0 -1526.11 2180.2 0
-4.01564e-005 0.00301654 0 6.16623 1150.51 0
-0.00180498 0.00506765 0 -474.014 1348.51 0
-0.000161305 0.00301261 0 -353.604 65.9188 0
-0.000482063 0.00316965 0 -1377.4 749.09 0
-0.000942791 0.00378901 0 -1411.16 1781.47 0
-0.000134053 0.00282435 0 120.51 439.857 0
0.000242746 0.000963685 0 -6.26052 36.1902 0
0.00525461 0.0274919 0 1145.19 2377.32 0
0.00306352 0.0179257 0 576.946 2584.7 0
-0.000120066 0.00324295 0 -909.828 1893.33 0
-0.00319507 0.0125029 0 -1190.92 1407.24 0
-0.000290892 0.00233844 0 47.9243 168.206 0
0.00159844 0.00482417 0 741.732 1844.52 0
0.00787978 0.0236538 0 1398.33 2289.55 0
0.00145057 0.0259009 0 366.748 2617.67 0
-0.000336257 0.00619409 0 -292.653 2733.19 0
-0.000333917 0.00172186 0 32.3006 122.641 0
0.00577509 0.0216659 0 1175.04 2445.46 0
0.000667048 0.00332313 0 1427.73 1112.24 0
0.00248969 0.00807562 0 155.077 1819.52 0
-0.00160944 0.00467215 0 -684.036 1581.1 0
1.98969e-005 0.00242157 0 -5.93906 261.073 0
0.000286635 0.0021356 0 -43.9329 172.188 0
-0.00161117 0.00618199 0 -412.232 2359.81 0
7.54635e-005 0.00268391 0 -46.7437 387.685 0
0.00101663 0.00497361 0 1340.75 2336.57 0
9.78423e-005 0.00320089 0 767.905 1839.5 0
-0.000282098 0.0245537 0 -101.513 2638.96 0
0.00160534 0.0053807 0 665.592 2185.83 0
0.000645555 0.00426047 0 1311.53 2255.16 0
0.000344665 0.00191282 0 -38.5208 142.349 0
-4.37224e-005 0.0030135 0 14.2813 1134.95 0
0.000410526 0.00592784 0 397.076 2704.93 0
-0.00161438 0.00462874 0 -643.976 1384.38 0
0.000197339 0.00307463 0 2040.56 825.236 0
-0.00787948 0.0250527 0 -1286.93 2309.44 0
0.000365567 0.000836364 0 -2.27216 34.4494 0
0.000428529 0.0031113 0 694.296 325.187 0
6.29689e-005 0.00280138 0 -60.7879 497.466 0
-0.00260928 0.0115127 0 25.6445 2011.33 0
0.00511854 0.0182191 0 1242.77 2214.57 0
-0.000191506 0.0013612 0 12.6463 69.4438 0
0.000255298 0.00234631 0 -54.9565 205.534 0
7.80872e-005 0.00285378 0 -91.089 555.27 0
-6.93966e-006 0.00361778 0 -16.2817 2372.63 0
-0.000112834 0.00273034 0 78.4593 406.704 0
-0.000151306 0.00308356 0 -1670.47 1200.38 0
0.000794921 0.00339323 0 1012.5 877.822 0
0.000120559 0.00308016 0 1227.46 1448.35 0
-0.00060963 0.000994212 0 32.4428 97.2503 0
-0.000187211 0.00375918 0 -654.985 2356.24 0
-0.000179749 0.00239602 0 48.8117 239.891 0
0.000583853 0.00320912 0 812.209 524.191 0
-0.000220391 0.00307379 0 -1978.93 737.816 0
-3.20721e-005 0.00313154 0 -236.441 1707.85 0
-0.00240166 0.00829286 0 -193.413 2020.93 0
-0.000107553 0.0032363 0 -826.574 1903.38 0
0.000485775 0.00324734 0 1913.13 1134.9 0
-1.6528e-005 0.00283252 0 18.7191 552.807 0
0.000388916 0.00319175 0 2023.94 1013.51 0
-0.000191501 0.000101552 0 -0.237708 0.704597 0
-0.00244196 0.00780076 0 -202.668 1685.02 0
-0.000237142 0.00223825 0 45.0861 196.259 0
-0.00179252 0.00511195 0 -453.142 1545.85 0
7.86645e-005 0.00300926 0 -7.32606 1188.22 0
-0.00578012 0.0268724 0 -1304.04 2318.88 0
-0.00101007 0.00801211 0 -454.242 2738.08 0
0.000363332 0.00337974 0 1757.76 1569.25 0
0.000391279 0.00186159 0 -38.7045 136.038 0
0.000433244 0.00317308 0 1796 944.098 0
0.00161612 0.00543442 0 653.506 2184.1 0
-0.00207993 0.00693738 0 -341.234 2172.16 0
0.000483914 0.00474879 0 744.919 2537.72 0
0.000802557 6.40842e-005 0 0.370327 0.0854454 0
0.00066144 0.00330597 0 1311.35 992.496 0
0.00141767 0.0197289 0 493.367 2463.28 0
-0.000651775 0.00329699 0 -1399.5 1047.79 0
0.000282152 0.00304241 0 356.79 97.3883 0
-0.000357054 0.00319624 0 -2066.58 1023.99 0
-0.00178284 0.00623412 0 -406.916 2251.8 0
3.8992e-005 0.00380209 0 142.719 2440.24 0
-0.00100109 0.0210667 0 -378.438 2539.86 0
0.000165033 0.00158259 0 -16.174 95.1722 0
0.00864187 0.0174253 0 1425.95 1450.21 0
0.00315453 0.0128329 0 1045.56 1983.44 0
-8.64597e-005 0.00318341 0 -710.934 1818.27 0
-0.000259494 0.0126492 0 452.597 2612.24 0
0.000466396 0.000355167 0 3.36482 2.82705 0
0.000246728 0.00318708 0 1830.78 1243.57 0
-0.000724122 0.000493878 0 -2.36274 44.3929 0
-0.00236534 0.0089472 0 -185.154 2228.69 0
-0.00585899 0.0184819 0 -1424.44 2175.76 0
-0.000109395 0.00425783 0 -213.727 2565.25 0
-0.000225082 0.00307869 0 -2011.99 773.926 0
0.00116126 0.00383867 0 850.83 1199.04 0
0.000146244 0.00305529 0 1827.39 1038.1 0
0.000106639 0.00285591 0 -119.004 524.076 0
0.00516349 0.0142403 0 1715.87 1286.46 0
-0.000547118 0.0281975 0 -137.297 2678.64 0
-0.00314055 0.0188201 0 -583.307 2559.87 0
6.39205e-005 0.0034062 0 355.167 2200.85 0
0.000746714 0.00049437 0 -3.65806 51.058 0
0.00226648 0.0258744 0 577.997 2562.77 0
-0.000137355 0.00283875 0 110.193 414.219 0
0.00173233 0.0108179 0 -169.523 2492.95 0
-0.000334456 0.00625618 0 -291.428 2733.16 0
-0.000652252 0.00338145 0 -1734.74 1353.26 0
-6.89277e-005 0.00306466 0 -413.314 1493.23 0
0.000126795 0.00304178 0 1715.4 1153.61 0
0.00478399 0.0277755 0 1014.94 2395.77 0
0.000516287 0.0229306 0 150.406 2605.75 0
5.89116e-005 0.00254342 0 -24.0695 309.129 0
-0.00795861 0.0246948 0 -1289.52 2293.54 0
0.00133689 0.00999394 0 -182.064 2589.16 0
-0.000118825 0.0220921 0 -60.2997 2592.7 0
6.34909e-005 0.0107046 0 49.9931 2865.74 0
-0.000946741 0.00381309 0 -1403.81 1784.64 0
0.00581241 0.0241952 0 1025.14 2544.35 0
-0.00487736 0.01991 0 -1029.66 2448.11 0
0.00170829 0.0256098 0 446.459 2605.73 0
9.98067e-005 0.00316224 0 847.364 1738.39 0
0.00308063 0.0142797 0 766.532 2257.69 0
-0.000279242 0.00307977 0 -1688.64 614.845 0
-0.000183934 0.00303725 0 -1514.08 447.223 0
7.83288e-005 0.00286324 0 -95.4137 569.668 0
-0.000440884 0.00514493 0 -570.136 2660.92 0
0.000455558 0.00477565 0 698.189 2556.2 0
0.00520625 0.0221693 0 1004.04 2501.69 0
-0.00179507 0.00722781 0 -239.417 2375.6 0
5.54873e-005 0.00266826 0 -32.9818 380.995 0
-0.00157971 0.00456195 0 -678.323 1420.76 0
4.18607e-005 0.00302762 0 24.9351 1221.71 0
-0.000194972 5.19224e-005 0 -0.0778114 0.318173 0
-0.000846289 0.00342394 0 -744.449 766.274 0
-0.00105965 0.00823661 0 -310.461 2699.39 0
0.000163413 0.00479131 0 272.774 2630.63 0
-8.2874e-005 0.00288534 0 112.576 600.107 0
0.00157378 0.00552232 0 613.939 2236.91 0
-7.66839e-005 0.00293931 0 134.929 727.966 0
0.000101978 0.0109948 0 46.4627 2851.71 0
-0.000363872 0.00601296 0 -344.238 2715.92 0
0.000117978 0.00287815 0 -135.956 516.35 0
0.000219153 0.00318835 0 1702.33 1365.27 0
-0.00163196 0.00449872 0 -281.984 430.479 0
-0.000221409 0.00303399 0 -721.355 197.821 0
-0.000370966 0.0244074 0 -127.116 2631.89 0
-0.000466554 0.00315829 0 -1375.05 714.778 0
0.000396164 0.00331941 0 1946.24 1293.07 0
-0.00482666 0.0238063 0 -812.691 2560.11 0
0.00133411 0.00522841 0 838.829 2479.55 0
-0.00267568 0.00982141 0 -17.7182 1587.98 0
-0.000480207 0.0219659 0 -192.477 2583.21 0
0.00177473 0.0106071 0 -143.796 2475.04 0
0.000428512 0.00597987 0 399.112 2704.46 0
0.00330832 0.0202369 0 595.791 2638.43 0
-0.00036699 0.012473 0 491.106 2594.9 0
-0.000901486 0.00347959 0 -773.448 800.873 0
-9.70158e-005 0.00294708 0 169.88 686.727 0
-0.00110466 0.0144253 0 459.402 2519.76 0
-0.00107199 0.0143087 0 464.252 2522.97 0
0.000113095 0.0030798 0 1119.27 1483.46 0
0.000776547 0.0117402 0 -420.564 2647.78 0
-0.000196596 0.00302496 0 -621.817 151.979 0
-0.00581483 0.0148124 0 -1705.65 1289.55 0
0.000125326 0.00308478 0 1279.69 1429.5 0
-0.00172589 0.0230235 0 -544.551 2546.87 0
-0.00123798 0.0114294 0 294.169 2628.68 0
-0.000106038 0.00301072 0 -1365.04 1264.21 0
7.68012e-005 0.00277918 0 -66.3826 467.785 0
-0.000218387 0.00226751 0 44.7175 204.015 0
0.00288382 0.0120736 0 153.689 1333.73 0
0.000136685 0.00272066 0 -88.8029 382.193 0
0.00126396 0.00994364 0 -189.173 2588.88 0
0.000169734 0.00323168 0 1273.86 1722.48 0
3.33298e-005 0.00296283 0 -63.1209 861.249 0
7.38909e-005 0.00285244 0 -86.014 556.51 0
0.00226662 0.00684142 0 325.674 1794.46 0
-4.80444e-005 0.00288948 0 70.0063 640.989 0
0.000117291 0.00304527 0 1359.22 1315.03 0
0.00044057 0.00316393 0 1636.88 857.275 0
0.00025781 0.000139806 0 0.494319 0.842159 0
-0.000553437 0.0115383 0 414.203 2622.37 0
0.00174054 0.0109254 0 -174.262 2493.19 0
-0.00657824 0.0304887 0 -1199.96 2387.1 0
-0.00287878 0.0309438 0 -537.253 2637.14 0
-1.74214e-005 0.00292383 0 29.9944 738.748 0
0.000417861 0.00311152 0 834.61 368.653 0
-0.000158816 0.00302837 0 -1439.08 408.362 0
0.000540608 0.00339996 0 1993.55 1320.5 0
0.00322243 0.0179545 0 648.052 2478.54 0
-0.000159371 0.0013528 0 10.1298 66.7452 0
0.000126077 0.0159893 0 7.76861 2476.63 0
-0.00432652 0.0294311 0 -855.686 2519.77 0
0.0015673 0.00546801 0 621.263 2230.56 0
-5.0904e-005 0.00292621 0 87.1198 726.234 0
-0.000106737 0.00293051 0 165.812 599.868 0
0.00275932 0.0110589 0 37.9014 1719.12 0
0.000556951 0.00340784 0 1972.11 1319.61 0
0.000399007 0.0063813 0 335.905 2737.99 0
-4.55764e-005 0.00288684 0 64.9637 636.612 0
5.78688e-005 0.00240298 0 -16.8511 253.394 0
-0.00135948 0.0128543 0 380.472 2531.4 0
0.00105587 0.00489705 0 1401.3 2316.22 0
-0.00180772 0.00736401 0 -230.612 2401.15 0
8.62884e-005 0.0107917 0 48.8338 2865.52 0
-1.73838e-005 0.00299616 0 21.5037 1020.18 0
-0.000559779 0.00402893 0 -1384.94 2202.41 0
-0.000129894 0.00339006 0 -756.093 2143.38 0
-0.00108645 0.0209701 0 -392.54 2529.39 0
-0.000355289 0.00318516 0 -2056.06 991.58 0
6.75287e-005 0.00268766 0 -42.5212 392.48 0
-1.6399e-005 0.00282695 0 18.3738 545.261 0
0.000375645 0.00184967 0 -38.28 135.677 0
0.000226595 0.00318087 0 1768.76 1278.56 0
-0.00157723 0.0197887 0 -491.879 2507.47 0
0.000153682 0.00302297 0 1249.04 383.62 0
-0.000983791 0.00376429 0 -1333.98 1716.74 0
0.00320404 0.0139037 0 943.444 2135.32 0
-0.000399729 0.0051532 0 -512.363 2653.14 0
-8.43671e-005 0.0028893 0 117.442 605.201 0
0.00153091 0.0204307 0 534.123 2430.59 0
0.0023948 0.0125217 0 -112.967 2302.2 0
0.000662239 0.00525468 0 796.373 2578.23 0
-0.00103759 0.0179087 0 -145.723 2490.42 0
-0.00194218 0.00558429 0 -473.125 1637.58 0
-0.000960129 0.00376594 0 -1382.4 1728.68 0
-0.000309837 0.00306474 0 -804.367 282.869 0
0.00162461 0.00920594 0 -43.589 2539.66 0
0.00346181 0.0203111 0 631.589 2623.08 0
0.000412094 0.000782235 0 0.066098 33.4965 0
4.10836e-005 0.00290739 0 -64.6969 683.984 0
0.00107752 0.00513333 0 1282.01 2369.26 0
-0.00139776 0.00696247 0 -311.833 2613.63 0
5.83714e-005 0.0023895 0 -16.4059 249.056 0
0.000501828 0.0119171 0 -496.062 2648.67 0
-2.97555e-005 0.00300349 0 29.4379 1063.64 0
0.00113092 0.00612109 0 953.377 2576.13 0
3.11664e-005 0.00285722 0 -38.6374 588.924 0
-0.000756348 0.0223669 0 -276.778 2582.07 0
0.000606022 0.00322532 0 791.835 517.042 0
0.00858419 0.0213223 0 1579.59 1921.14 0
0.00228739 0.00873166 0 104.043 2247.03 0
-0.00330691 0.0124678 0 -1185.49 1170.49 0
-0.00135503 0.018735 0 -309.798 2530.72 0
-0.00782909 0.0173425 0 -1705.44 1599.4 0
0.000179373 0.00168518 0 -18.6359 109.116 0
0.000181353 0.0228576 0 42.3911 2610.16 0
0.00116853 0.00608209 0 960.681 2565.41 0
0.00534216 0.0272787 0 1181.14 2367.12 0
0.000808836 0.00340365 0 993.012 876.926 0
-0.00176706 0.00728799 0 -235.61 2405.17 0
0.000366125 0.00308127 0 605.626 278.279 0
0.000142062 0.00271694 0 -90.0344 374.771 0
0.000456136 0.0264018 0 92.4989 2656.05 0
0.000149779 0.00301624 0 850.789 230.893 0
8.09965e-005 0.015903 0 10.732 2471.92 0
3.07264e-005 0.00286231 0 -39.0154 597.803 0
-0.000148146 0.00339011 0 -852.554 2095.61 0
-0.0064378 0.0277565 0 -1301.74 2354.49 0
0.00072806 0.00532362 0 848.735 2558.91 0
-0.00065633 0.00335203 0 -1648.89 1278.43 0
-0.000360464 0.000878987 0 4.79731 34.1069 0
-9.67537e-005 0.00295742 0 174.335 711.959 0
-0.000484113 0.00948683 0 -176.818 2829.59 0
-0.000565445 0.00399845 0 -1398.97 2186.83 0
0.000588623 0.00111811 0 -36.2179 108.733 0
0.000130395 0.00304539 0 1707.31 1143.41 0
0.000107754 0.00285149 0 -117.528 517.237 0
0.00165731 0.0250536 0 436.756 2602.61 0
0.00285988 0.0119675 0 7.91698 1218.85 0
-9.54028e-005 0.00428588 0 -192.724 2582.61 0
-0.000124414 0.00317156 0 -1060.21 1712.12 0
-0.00814733 0.0285856 0 -1357.24 2312.75 0
-0.000216377 0.0031251 0 -1926.67 1057.94 0
0.00549751 0.012219 0 213.842 81.7338 0
-0.00550796 0.012201 0 -224.046 66.2359 0
0.00287309 0.0132504 0 628.838 2100.17 0
0.000396043 0.00090361 0 -8.24389 42.4572 0
-9.96587e-005 0.00294535 0 172.643 668.583 0
-0.00215947 0.00674928 0 -349.659 1990.69 0
-0.000289559 0.000893856 0 2.74841 31.1716 0
0.00184728 0.00894591 0 44.971 2486.24 0
-0.000404895 0.00611192 0 -373.151 2721.96 0
-0.00085135 0.00350535 0 -1295.68 1332.22 0
3.34633e-006 0.00298331 0 -6.52546 958.122 0
0.00378526 0.0199019 0 754.314 2612.16 0
-0.000528492 0.024373 0 -173.613 2630.35 0
-0.000842118 0.0116133 0 386.012 2652.37 0
-0.00298148 0.0188909 0 -557.744 2573.06 0
5.9556e-005 0.0025331 0 -23.6835 304.692 0
-0.000468824 0.00121303 0 28.9859 85.6699 0
9.1581e-005 0.0171817 0 18.1336 2463.5 0
-0.00127026 0.0113439 0 288.189 2648.69 0
0.00402234 0.0130084 0 1495.18 902.217 0
-0.000363163 0.00496329 0 -497.088 2627.83 0
-0.00609252 0.0268039 0 -1273.67 2329.37 0
0.000283831 0.00172705 0 -28.9509 119.423 0
-0.000884834 0.00452052 0 -1475.29 2258.18 0
0.000104251 0.00312707 0 923.851 1629.29 0
0.00028648 0.000908897 0 -4.71131 34.9767 0
0.00627587 0.0218045 0 1260.73 2439.42 0
0.000138189 0.00301242 0 839.73 184.951 0
-8.45766e-005 0.00300744 0 -20.3787 1210.62 0