# rho  FACE_DATA 23640
#  x  y  z  rho
-0.00296834 0.0159323 0 0.0015689
0.000794309 0.0100339 0 0.00196027
0.00690979 0.0130745 0 4.86363e-005
0.000158008 0.0018211 0 0.395769
-0.000662165 0.0113619 0 0.00301891
-0.00203768 0.00587959 0 0.0111061
-0.000220137 0.00748479 0 0.00238437
0.00214531 0.0125841 0 0.00592949
-0.00164167 0.00702341 0 0.00740671
0.00020958 0.00306993 0 0.012151
4.59799e-005 0.00273939 0 0.38356
0.00075606 0.00524313 0 0.0042298
0.00107075 0.0257944 0 0.00309242
-0.000458708 0.0115994 0 0.00220932
-0.000900467 0.00350322 0 0.0158624
-0.00222355 0.00655891 0 0.00968812
0.00442703 0.0182294 0 0.000767933
7.09705e-005 0.00299924 0 0.283892
-2.45517e-005 0.00292714 0 0.340893
-0.000543852 0.00394831 0 0.00922538
7.98376e-005 0.00283498 0 0.37298
0.00510868 0.0124654 0 3.92328e-005
7.37866e-005 0.00284217 0 0.371064
-0.000122136 0.00287943 0 0.369435
0.00117211 0.0120328 0 0.00446866
0.000340217 0.00636002 0 0.00328115
-1.62375e-005 0.00331413 0 0.053144
0.000288499 0.00391811 0 0.0123815
0.00604323 0.0215883 0 0.000475364
0.0015748 0.0199438 0 0.00312478
0.000642306 0.0286533 0 0.00253063
-0.000788091 0.000235815 0 0.436076
8.45076e-005 0.00283429 0 0.37348
-0.000766033 0.00453527 0 0.00550561
-0.000556446 0.00360452 0 0.00916634
-0.000694613 0.00330261 0 0.0145759
0.00425461 0.0181246 0 0.000810832
0.00563158 0.0299784 0 0.00141423
0.00374311 0.0125452 0 0.000118649
-0.000168184 0.00269727 0 0.392101
0.00100487 0.00483203 0 0.00444587
-0.00170325 0.00704586 0 0.00779915
-0.00047461 0.0123053 0 0.00316943
-0.00401905 0.0129379 0 0.000109461
0.000128446 0.00148328 0 0.390427
0.000108141 0.00315803 0 0.0670488
0.00299545 0.0176096 0 0.00156503
0.00122698 0.00708374 0 0.00268499
0.000214903 0.00307399 0 0.0122047
0.00225142 0.0126586 0 0.00594536
0.000204708 0.00068009 0 0.394011
4.25297e-005 0.00299727 0 0.289486
-0.000477288 0.00315875 0 0.0134907
-0.00378992 0.02149 0 0.000932412
0.000139812 0.00181138 0 0.395493
0.000208917 0.00302796 0 0.0079097
-0.00160791 0.0049468 0 0.0138351
0.000941143 0.00995448 0 0.00272422
8.9442e-006 0.010956 0 0.00135496
-0.000434056 0.00133506 0 0.391488
0.000566946 0.0289715 0 0.00244905
-7.40414e-005 0.003214 0 0.0699842
-0.000145493 0.00239699 0 0.39895
3.42483e-005 0.00298986 0 0.298632
0.000575544 0.00987125 0 0.00151103
3.71363e-005 0.00299095 0 0.297137
-0.00247102 0.00772987 0 0.00839193
0.00096928 0.0118325 0 0.00409945
-9.22697e-005 0.00299969 0 0.268935
-0.000570617 0.0122505 0 0.00335201
-0.000211411 0.00254812 0 0.398487
-0.000765289 0.00457715 0 0.00542843
8.13068e-005 0.00294139 0 0.343799
-0.00437678 0.0203082 0 0.000786294
0.00226862 0.00661101 0 0.00985905
-0.000832194 0.000220534 0 0.433274
-0.000164868 0.00301134 0 0.00749288
0.0012393 0.0259768 0 0.0030357
-2.48279e-005 0.00292318 0 0.343097
0.000116572 0.00245177 0 0.397679
9.77655e-005 0.00313112 0 0.0782756
0.000279024 0.00328636 0 0.0204009
-5.75605e-005 0.0116355 0 0.00134144
-7.47936e-005 0.0117342 0 0.00135843
0.000518168 0.00993111 0 0.00148835
-0.000154608 0.0030256 0 0.0105802
4.53443e-005 0.00299839 0 0.288323
-0.000161071 0.0027724 0 0.385955
0.000104836 0.00293916 0 0.349866
-0.00100104 0.00361077 0 0.0159614
-0.000510005 0.00921774 0 0.00167892
0.00100295 0.0100141 0 0.00348834
-0.000646084 0.00336418 0 0.0118031
6.96906e-005 0.00293287 0 0.344295
-1.67264e-005 0.00300289 0 0.284796
0.000173509 0.0227352 0 0.0047093
3.17037e-005 0.00298455 0 0.303567
0.000312244 0.00306502 0 0.0104592
-0.00212604 0.00906512 0 0.00762085
-0.00049218 0.00322389 0 0.0117182
0.000341345 0.00323843 0 0.0133234
-0.00385942 0.0216496 0 0.000942555
-0.000125834 0.0028813 0 0.369008
0.00524627 0.0255212 0 0.000647162
0.000713781 0.0036837 0 0.00693128
0.00601727 0.0299149 0 0.00130658
-0.000344095 0.00203632 0 0.400575
-0.0047341 0.0239481 0 0.000715946
-0.000460773 0.00539436 0 0.00451125
-0.00196148 0.00905338 0 0.00720107
0.00143807 0.0303782 0 0.00219441
7.94637e-005 0.00293894 0 0.344386
0.00013473 0.00481908 0 0.00635604
0.00105264 0.00484794 0 0.00429841
0.000112877 0.0030262 0 0.0374797
-0.00781161 0.0282885 0 0.000384418
-0.000846622 0.00344471 0 0.0156909
-0.00206201 0.0306837 0 0.00202651
-0.00313594 0.0160362 0 0.00137684
0.00144289 0.0198776 0 0.00374984
-0.000135136 0.00286502 0 0.373132
-0.000205101 0.000950881 0 0.385372
0.000372212 0.00308853 0 0.0116418
0.000370404 0.000795868 0 0.387165
0.000201681 0.00347815 0 0.0240852
-0.000147808 0.00278598 0 0.384208
0.000218103 0.000637733 0 0.407203
0.000195722 0.00313377 0 0.0235157
-0.00203813 0.00594128 0 0.0111558
0.00112067 0.00510142 0 0.00380191
5.16573e-005 0.00373385 0 0.0182151
0.000381501 0.00336875 0 0.0135461
0.000860715 0.0258401 0 0.00324495
-0.000116556 0.00339842 0 0.0338792
-0.00513668 0.0257477 0 0.00067703
-0.000162894 0.00277847 0 0.386067
8.27341e-005 0.00277738 0 0.381078
0.0010674 0.0118759 0 0.00427696
-4.09992e-005 0.00275121 0 0.382244
3.29665e-005 0.00297369 0 0.313288
-0.00204547 0.0090065 0 0.0076046
-0.00160474 0.0048986 0 0.0140057
8.25825e-005 0.00294819 0 0.34043
4.00473e-005 0.00273627 0 0.383709
-9.41642e-005 0.00295571 0 0.339767
0.00150619 0.00997327 0 0.00542876
8.22134e-005 0.00268838 0 0.388781
-0.000160791 0.00267895 0 0.392664
-0.000596112 0.00909085 0 0.00170737
-9.31423e-005 0.00299701 0 0.288086
0.00235681 0.0126226 0 0.00606692
0.00203765 0.00557212 0 0.0108467
-0.000165794 0.0115731 0 0.00139857
6.0159e-005 0.0021996 0 0.398539
0.000371981 0.00362464 0 0.0139576
-0.00733688 0.029685 0 0.00066166
-0.000180414 0.00743151 0 0.00239476
-0.000357207 0.004885 0 0.00581027
0.00253943 0.00813968 0 0.00795799
-1.29377e-005 0.00332967 0 0.0525809
-0.0010235 0.00361199 0 0.0157918
-0.000285329 0.0030748 0 0.0110383
-0.000681311 0.00329291 0 0.0144124
-0.00260727 0.00895038 0 0.00701719
0.00788717 0.0276195 0 0.000374969
0.0089704 0.0287411 0 0.000312983
-0.000270534 0.00232157 0 0.401489
-0.00014416 0.00312601 0 0.0464988
-0.000337662 0.00201762 0 0.400347
0.0003962 0.00337513 0 0.0134061
0.00121317 0.00701782 0 0.00265522
0.000116206 0.00302915 0 0.0337275
0.00225197 0.00666935 0 0.00972132
-0.000507665 0.00548922 0 0.00424449
-0.000231863 0.00226746 0 0.400646
0.000244361 0.00226851 0 0.400934
0.00111028 0.00505498 0 0.0038952
0.000121223 0.00304184 0 0.0401196
0.00012049 0.00243938 0 0.398016
-0.0013386 0.0186068 0 0.00333971
0.000102064 0.00149733 0 0.390635
0.000147362 0.00301363 0 0.00687543
0.00106981 0.0119939 0 0.00426094
-0.000365953 0.00411169 0 0.00996058
0.00557444 0.020358 0 0.000502841
4.86089e-005 0.00307386 0 0.168317
-0.000177413 0.0035472 0 0.0229
-0.000632994 0.00339325 0 0.00910971
0.000487307 0.00130985 0 0.391873
-0.000349424 0.00402777 0 0.0110335
-0.00177251 0.00629586 0 0.0103401
-7.92525e-005 0.00273084 0 0.385477
0.000241714 0.00100077 0 0.385651
-0.000154516 0.0114773 0 0.00138508
0.00502442 0.0222916 0 0.000688719
-0.000166546 0.00272686 0 0.390312
0.000707598 0.00365891 0 0.00708006
-0.00157418 0.0046046 0 0.0141189
0.000122725 0.00301099 0 0.00872946
0.000172305 0.00324558 0 0.0366401
7.46185e-006 0.00286175 0 0.363015
0.00533293 0.0140838 0 7.24195e-005
0.00520504 0.0284215 0 0.00149281
-0.00170266 0.00713636 0 0.00774083
4.38765e-005 0.00290514 0 0.351235
0.00035679 0.0099507 0 0.00145958
0.000120447 0.00300871 0 0.00854164
7.85992e-005 0.00284146 0 0.371801
0.000146556 0.00306157 0 0.0274005
-0.000265484 0.00230758 0 0.401447
-0.000558184 0.0114136 0 0.00238156
0.000873988 0.011905 0 0.00390433
0.00195145 0.0157285 0 0.00329622
0.000415959 0.00988952 0 0.00147741
0.00204861 0.00551694 0 0.0113037
0.00159497 0.00893937 0 0.00590403
0.00125366 0.00690066 0 0.00285031
-0.000537482 0.00397822 0 0.00873277
-0.00245206 0.00890865 0 0.00778617
-0.00591638 0.015069 0 0.000122081
0.00182541 0.0157696 0 0.00355674
-6.39179e-005 0.00274368 0 0.383452
1.24162e-005 0.00286011 0 0.36371
0.000785526 0.00520879 0 0.00431069
0.000119132 0.00288179 0 0.368264
0.000107617 0.00492998 0 0.00607451
-0.000398708 0.00617064 0 0.00333603
-0.00031795 0.000861625 0 0.386332
-0.0054742 0.0145195 0 0.000120262
-0.00050603 0.0093045 0 0.0016806
-0.00281713 0.0160093 0 0.00171608
-0.00521587 0.0225645 0 0.000610204
0.000631138 0.00410172 0 0.00748935
0.00077675 0.0118594 0 0.00373915
-0.000339893 0.00491785 0 0.00574769
0.000278502 0.0033019 0 0.0199396
-0.000206291 0.0025551 0 0.398173
0.0015782 0.00885327 0 0.00594498
-0.000601058 0.00917374 0 0.00170906
0.000107852 0.00308374 0 0.0739912
0.000329157 0.00324408 0 0.0144694
-0.000107456 0.0030138 0 0.0347122
0.000995869 0.00478803 0 0.00447226
-0.00176263 0.00715431 0 0.0081284
0.000133123 0.00190024 0 0.396654
0.00428452 0.0222831 0 0.000836179
0.00249322 0.0134845 0 0.00413573
0.000209201 0.00303326 0 0.00846572
1.124e-005 0.00241342 0 0.397398
-0.000138897 0.00282521 0 0.37967
-0.000422518 0.00130967 0 0.391153
0.000897928 0.00602889 0 0.00331659
0.00296246 0.0177704 0 0.00153576
-0.000240922 0.0022558 0 0.400721
0.000161456 0.0106342 0 0.00138027
-0.000169117 0.00269067 0 0.39237
-0.00600599 0.0132277 0 4.17897e-005
-0.00498542 0.0226529 0 0.000674497
0.00035646 0.00189436 0 0.398662
0.000360867 0.00193124 0 0.399117
0.000188008 0.00159518 0 0.392556
0.00315697 0.0294361 0 0.00215979
0.000380728 0.00331446 0 0.0127019
-0.000407732 0.00541329 0 0.00455986
0.00599218 0.0187772 0 0.000403167
-0.000475668 0.0124289 0 0.0032178
9.243e-005 0.00339173 0 0.0379841
-0.0022067 0.00902531 0 0.00787948
0.000138287 0.010546 0 0.00138075
-4.59787e-005 0.00300592 0 0.277477
0.000475334 0.00325723 0 0.00884229
0.0081269 0.0233608 0 0.000299227
-0.000136448 0.00286953 0 0.372142
0.000465099 0.00132931 0 0.392082
0.000196949 0.00312437 0 0.0238688
-0.000725979 0.00459524 0 0.00576378
0.00566025 0.0201173 0 0.000505304
-0.000237093 0.000937504 0 0.38563
-7.15727e-006 0.00298867 0 0.299371
-0.000556128 0.00552312 0 0.00411061
-0.000151452 0.00278159 0 0.38507
0.00604583 0.0167381 0 0.000254814
5.44524e-005 0.00307484 0 0.162937
3.5211e-005 0.00270778 0 0.386133
-0.00210731 0.0068781 0 0.0104291
8.91266e-005 0.00319599 0 0.0700743
-0.00242079 0.00974735 0 0.00740486
0.00135885 0.00413507 0 0.0151692
-0.00108228 0.00797081 0 0.00216151
3.29303e-005 0.00271504 0 0.385298
-0.000508078 0.0208168 0 0.00572169
-0.00472826 0.0198065 0 0.000674143
0.00152826 0.0090827 0 0.00565342
-0.00252462 0.00897287 0 0.00746822
-4.09377e-005 0.0027578 0 0.3815
-0.00186927 0.0116808 0 0.00583049
0.00108447 0.00518193 0 0.00382148
-0.00419392 0.0202211 0 0.000836929
0.000296615 0.00594885 0 0.00371345
0.00365557 0.0156923 0 0.00103394
-0.000138643 0.00311989 0 0.048677
3.44704e-005 0.00298593 0 0.302318
-0.000249911 0.000891772 0 0.385378
0.00110337 0.0099601 0 0.00435499
8.04689e-005 0.00279643 0 0.378285
0.00779157 0.0249956 0 0.000337446
0.000351464 0.00337107 0 0.0151068
-0.00012879 0.00323538 0 0.048445
0.000155895 0.00168996 0 0.393844
8.56943e-005 0.00294739 0 0.341641
0.0053023 0.0238774 0 0.000645507
0.000238423 0.00318026 0 0.0210426
0.000230406 0.00226533 0 0.4007
-5.15866e-005 0.00292996 0 0.342567
2.57476e-005 0.00286927 0 0.361645
0.000105066 0.00340141 0 0.0355981
-0.0006343 0.00341198 0 0.00869409
-0.00683177 0.0130924 0 4.34552e-005
-1.54609e-005 0.00299907 0 0.288999
-0.00215958 0.00656839 0 0.0106488
0.00301179 0.0141363 0 0.00176704
-0.000723924 0.00463742 0 0.00568793
-0.000555458 0.00358088 0 0.0093073
0.000287933 0.00394954 0 0.0119382
-0.00525881 0.0259389 0 0.000672156
-0.000235386 0.00314485 0 0.0182496
-0.000664883 0.00104525 0 0.39286
0.00182857 0.0107598 0 0.00582224
0.00289308 0.0133881 0 0.0026017
0.000556851 0.000459359 0 0.420274
-6.31462e-005 0.00306344 0 0.163707
0.00204396 0.0126442 0 0.0058097
-0.000369072 0.00408052 0 0.0101503
-0.00018247 0.00378321 0 0.0153599
0.000579156 0.0162179 0 0.0059448
0.00117061 0.0100074 0 0.00451684
0.000129771 0.00301154 0 0.0085927
0.00050022 0.00329429 0 0.00857371
-0.00194273 0.0117557 0 0.00593998
0.000295066 0.00600891 0 0.0037169
-0.000154748 0.0030213 0 0.00892246
8.51353e-005 0.00297491 0 0.323646
0.000370749 0.00364798 0 0.0135603
0.00032381 0.000892659 0 0.386307
-0.000114683 0.00273658 0 0.386621
7.10543e-005 0.0030026 0 0.274308
-9.6647e-005 0.00324264 0 0.0568057
0.000733896 0.00537107 0 0.00427357
0.000155197 0.00494735 0 0.00574952
0.000610019 0.00412319 0 0.00765217
0.000353717 0.00194986 0 0.399338
-0.000244432 0.00314026 0 0.0165098
-0.00502653 0.0232658 0 0.000655215
-0.00178789 0.0309983 0 0.00202657
-0.000579723 0.00361754 0 0.00918184
0.00813841 0.0273314 0 0.000352347
-0.002496 0.0131044 0 0.00493344
-0.00431729 0.0290645 0 0.00181288
-0.000157683 0.00240005 0 0.39915
-6.09633e-005 0.00273787 0 0.384344
-0.000172602 0.00356894 0 0.022034
5.95493e-005 0.00280503 0 0.376121
3.59382e-005 0.00297531 0 0.3121
0.0038221 0.0156522 0 0.000925144
0.00151814 0.00899556 0 0.00568913
0.00891208 0.0209237 0 0.000161496
0.00932881 0.0247628 0 0.000238296
0.000401147 0.00319889 0 0.00958004
-1.37134e-005 0.00292236 0 0.342916
-0.00149883 0.0199029 0 0.00322774
-0.000151382 0.00307642 0 0.0298258
-9.99299e-005 0.00297786 0 0.324612
0.00528439 0.0241343 0 0.000647136
2.61097e-005 0.00286432 0 0.362936
0.000206875 0.00349712 0 0.0238103
-0.00509797 0.0234717 0 0.000654384
-0.000597722 0.000953511 0 0.391915
-0.00793898 0.0155863 0 8.50732e-005
0.00183935 0.0106624 0 0.00585898
7.52069e-005 0.00339368 0 0.0388418
-7.77056e-005 0.00294222 0 0.341511
-9.8985e-005 0.00297992 0 0.32207
0.00161823 0.00911669 0 0.00597027
8.21842e-005 0.00297527 0 0.322234
-0.00188133 0.00900925 0 0.00692051
-0.00617827 0.0275965 0 0.000628868
-0.000490092 0.00321051 0 0.0127011
0.00945115 0.0288751 0 0.000275331
-0.00016434 0.00272067 0 0.39076
-0.00797941 0.0222445 0 0.000264115
-4.01564e-005 0.00301654 0 0.264552
-0.00180498 0.00506765 0 0.0124882
-0.000161305 0.00301261 0 0.0073308
-0.000482063 0.00316965 0 0.0135956
-0.000942791 0.00378901 0 0.0100774
-0.000134053 0.00282435 0 0.379521
0.000242746 0.000963685 0 0.385454
0.00525461 0.0274919 0 0.0012569
0.00306352 0.0179257 0 0.0015032
-0.000120066 0.00324295 0 0.0495736
-0.00319507 0.0125029 0 0.00121142
-0.000290892 0.00233844 0 0.401666
0.00159844 0.00482417 0 0.0143119
0.00787978 0.0236538 0 0.000321725
0.00145057 0.0259009 0 0.00316116
-0.000336257 0.00619409 0 0.00330481
-0.000333917 0.00172186 0 0.396145
0.00577509 0.0216659 0 0.000512956
0.000667048 0.00332313 0 0.0150217
0.00248969 0.00807562 0 0.00790401
-0.00160944 0.00467215 0 0.0136917
1.98969e-005 0.00242157 0 0.397421
0.000286635 0.0021356 0 0.400583
-0.00161117 0.00618199 0 0.0089017
7.54635e-005 0.00268391 0 0.388946
0.00101663 0.00497361 0 0.0041265
9.78423e-005 0.00320089 0 0.0657825
-0.000282098 0.0245537 0 0.00368689
0.00160534 0.0053807 0 0.011171
0.000645555 0.00426047 0 0.00718811
0.000344665 0.00191282 0 0.398856
-4.37224e-005 0.0030135 0 0.267439
0.000410526 0.00592784 0 0.00360476
-0.00161438 0.00462874 0 0.0136228
0.000197339 0.00307463 0 0.0146755
-0.00787948 0.0250527 0 0.000333083
0.000365567 0.000836364 0 0.386885
0.000428529 0.0031113 0 0.011704
6.29689e-005 0.00280138 0 0.37713
-0.00260928 0.0115127 0 0.00636134
0.00511854 0.0182191 0 0.000517633
-0.000191506 0.0013612 0 0.389072
0.000255298 0.00234631 0 0.400963
7.80872e-005 0.00285378 0 0.369754
-6.93966e-006 0.00361778 0 0.0238704
-0.000112834 0.00273034 0 0.387182
-0.000151306 0.00308356 0 0.0316065
0.000794921 0.00339323 0 0.0159942
0.000120559 0.00308016 0 0.0595342
-0.00060963 0.000994212 0 0.392052
-0.000187211 0.00375918 0 0.0161031
-0.000179749 0.00239602 0 0.399512
0.000583853 0.00320912 0 0.0145755
-0.000220391 0.00307379 0 0.0121555
-3.20721e-005 0.00313154 0 0.128265
-0.00240166 0.00829286 0 0.00818828
-0.000107553 0.0032363 0 0.0544893
0.000485775 0.00324734 0 0.00923321
-1.6528e-005 0.00283252 0 0.369359
0.000388916 0.00319175 0 0.00975533
-0.000191501 0.000101552 0 0.692301
-0.00244196 0.00780076 0 0.00843781
-0.000237142 0.00223825 0 0.400725
-0.00179252 0.00511195 0 0.0127935
7.86645e-005 0.00300926 0 0.250906
-0.00578012 0.0268724 0 0.000598167
-0.00101007 0.00801211 0 0.00209182
0.000363332 0.00337974 0 0.0152142
0.000391279 0.00186159 0 0.39863
0.000433244 0.00317308 0 0.0110591
0.00161612 0.00543442 0 0.0112171
-0.00207993 0.00693738 0 0.0103162
0.000483914 0.00474879 0 0.00605174
0.000802557 6.40842e-005 0 0.493308
0.00066144 0.00330597 0 0.0153403
0.00141767 0.0197289 0 0.00367653
-0.000651775 0.00329699 0 0.0144475
0.000282152 0.00304241 0 0.00816325
-0.000357054 0.00319624 0 0.0108013
-0.00178284 0.00623412 0 0.010389
3.8992e-005 0.00380209 0 0.0171218
-0.00100109 0.0210667 0 0.00496292
0.000165033 0.00158259 0 0.392295
0.00864187 0.0174253 0 0.000114947
0.00315453 0.0128329 0 0.00136667
-8.64597e-005 0.00318341 0 0.0727439
-0.000259494 0.0126492 0 0.00272565
0.000466396 0.000355167 0 0.46728
0.000246728 0.00318708 0 0.0204042
-0.000724122 0.000493878 0 0.405841
-0.00236534 0.0089472 0 0.00799682
-0.00585899 0.0184819 0 0.000396545
-0.000109395 0.00425783 0 0.00965088
-0.000225082 0.00307869 0 0.012445
0.00116126 0.00383867 0 0.0163163
0.000146244 0.00305529 0 0.0246027
0.000106639 0.00285591 0 0.37209
0.00516349 0.0142403 0 9.16911e-005
-0.000547118 0.0281975 0 0.00267971
-0.00314055 0.0188201 0 0.00122743
6.39205e-005 0.0034062 0 0.0365427
0.000746714 0.00049437 0 0.406451
0.00226648 0.0258744 0 0.00279421
-0.000137355 0.00283875 0 0.37774
0.00173233 0.0108179 0 0.00559461
-0.000334456 0.00625618 0 0.00325461
-0.000652252 0.00338145 0 0.0111022
-6.89277e-005 0.00306466 0 0.151208
0.000126795 0.00304178 0 0.0306279
0.00478399 0.0277755 0 0.00167715
0.000516287 0.0229306 0 0.0045725
5.89116e-005 0.00254342 0 0.394789
-0.00795861 0.0246948 0 0.000330116
0.00133689 0.00999394 0 0.00499332
-0.000118825 0.0220921 0 0.00524159
6.34909e-005 0.0107046 0 0.0013653
-0.000946741 0.00381309 0 0.00942693
0.00581241 0.0241952 0 0.000576501
-0.00487736 0.01991 0 0.000659128
0.00170829 0.0256098 0 0.00316036
9.98067e-005 0.00316224 0 0.0713535
0.00308063 0.0142797 0 0.0017142
-0.000279242 0.00307977 0 0.0111504
-0.000183934 0.00303725 0 0.0104836
7.83288e-005 0.00286324 0 0.366888
-0.000440884 0.00514493 0 0.00496343
0.000455558 0.00477565 0 0.00592693
0.00520625 0.0221693 0 0.000646551
-0.00179507 0.00722781 0 0.00822132
5.54873e-005 0.00266826 0 0.389356
-0.00157971 0.00456195 0 0.0141011
4.18607e-005 0.00302762 0 0.246469
-0.000194972 5.19224e-005 0 0.701271
-0.000846289 0.00342394 0 0.0154194
-0.00105965 0.00823661 0 0.00214778
0.000163413 0.00479131 0 0.00641217
-8.2874e-005 0.00288534 0 0.362606
0.00157378 0.00552232 0 0.0103088
-7.66839e-005 0.00293931 0 0.342999
0.000101978 0.0109948 0 0.00132802
-0.000363872 0.00601296 0 0.00352025
0.000117978 0.00287815 0 0.369435
0.000219153 0.00318835 0 0.0243799
-0.00163196 0.00449872 0 0.0140177
-0.000221409 0.00303399 0 0.00896146
-0.000370966 0.0244074 0 0.003802
-0.000466554 0.00315829 0 0.0135205
0.000396164 0.00331941 0 0.0119581
-0.00482666 0.0238063 0 0.000728374
0.00133411 0.00522841 0 0.00581763
-0.00267568 0.00982141 0 0.00671664
-0.000480207 0.0219659 0 0.00510751
0.00177473 0.0106071 0 0.00579765
0.000428512 0.00597987 0 0.00360787
0.00330832 0.0202369 0 0.00118227
-0.00036699 0.012473 0 0.0029829
-0.000901486 0.00347959 0 0.0155569
-9.70158e-005 0.00294708 0 0.344324
-0.00110466 0.0144253 0 0.00437856
-0.00107199 0.0143087 0 0.00436475
0.000113095 0.0030798 0 0.0687767
0.000776547 0.0117402 0 0.00373175
-0.000196596 0.00302496 0 0.00792619
-0.00581483 0.0148124 0 0.000122478
0.000125326 0.00308478 0 0.0566154
-0.00172589 0.0230235 0 0.00355347
-0.00123798 0.0114294 0 0.00448635
-0.000106038 0.00301072 0 0.0335895
7.68012e-005 0.00277918 0 0.380551
-0.000218387 0.00226751 0 0.40061
0.00288382 0.0120736 0 0.00535461
0.000136685 0.00272066 0 0.389173
0.00126396 0.00994364 0 0.00486581
0.000169734 0.00323168 0 0.0374981
3.33298e-005 0.00296283 0 0.321792
7.38909e-005 0.00285244 0 0.369593
0.00226662 0.00684142 0 0.00977871
-4.80444e-005 0.00288948 0 0.357267
0.000117291 0.00304527 0 0.0501982
0.00044057 0.00316393 0 0.0122476
0.00025781 0.000139806 0 0.656543
-0.000553437 0.0115383 0 0.0025208
0.00174054 0.0109254 0 0.00559776
-0.00657824 0.0304887 0 0.00105026
-0.00287878 0.0309438 0 0.00190772
-1.74214e-005 0.00292383 0 0.34234
0.000417861 0.00311152 0 0.0123045
-0.000158816 0.00302837 0 0.0109099
0.000540608 0.00339996 0 0.00829379
0.00322243 0.0179545 0 0.00125052
-0.000159371 0.0013528 0 0.388722
0.000126077 0.0159893 0 0.00740503
-0.00432652 0.0294311 0 0.00180178
0.0015673 0.00546801 0 0.010269
-5.0904e-005 0.00292621 0 0.344104
-0.000106737 0.00293051 0 0.352875
0.00275932 0.0110589 0 0.00618354
0.000556951 0.00340784 0 0.00822368
0.000399007 0.0063813 0 0.00314369
-4.55764e-005 0.00288684 0 0.357962
5.78688e-005 0.00240298 0 0.397614
-0.00135948 0.0128543 0 0.00474171
0.00105587 0.00489705 0 0.00422919
-0.00180772 0.00736401 0 0.00811267
8.62884e-005 0.0107917 0 0.00136571
-1.73838e-005 0.00299616 0 0.29263
-0.000559779 0.00402893 0 0.00854295
-0.000129894 0.00339006 0 0.033699
-0.00108645 0.0209701 0 0.00501666
-0.000355289 0.00318516 0 0.0106168
6.75287e-005 0.00268766 0 0.38831
-1.6399e-005 0.00282695 0 0.370611
0.000375645 0.00184967 0 0.398234
0.000226595 0.00318087 0 0.0223761
-0.00157723 0.0197887 0 0.00286211
0.000153682 0.00302297 0 0.00868199
-0.000983791 0.00376429 0 0.0138992
0.00320404 0.0139037 0 0.00150788
-0.000399729 0.0051532 0 0.00517438
-8.43671e-005 0.0028893 0 0.361674
0.00153091 0.0204307 0 0.00395724
0.0023948 0.0125217 0 0.00606621
0.000662239 0.00525468 0 0.00446976
-0.00103759 0.0179087 0 0.00411045
-0.00194218 0.00558429 0 0.012047
-0.000960129 0.00376594 0 0.0127363
-0.000309837 0.00306474 0 0.010325
0.00162461 0.00920594 0 0.00597898
0.00346181 0.0203111 0 0.00109598
0.000412094 0.000782235 0 0.387901
4.10836e-005 0.00290739 0 0.350531
0.00107752 0.00513333 0 0.00385147
-0.00139776 0.00696247 0 0.00396098
5.83714e-005 0.0023895 0 0.397854
0.000501828 0.0119171 0 0.00285206
-2.97555e-005 0.00300349 0 0.283296
0.00113092 0.00612109 0 0.00291267
3.11664e-005 0.00285722 0 0.364879
-0.000756348 0.0223669 0 0.00457409
0.000606022 0.00322532 0 0.014848
0.00858419 0.0213223 0 0.000185487
0.00228739 0.00873166 0 0.0077791
-0.00330691 0.0124678 0 0.000503096
-0.00135503 0.018735 0 0.00335246
-0.00782909 0.0173425 0 0.000111741
0.000179373 0.00168518 0 0.393849
0.000181353 0.0228576 0 0.00471544
0.00116853 0.00608209 0 0.00293506
0.00534216 0.0272787 0 0.00114469
0.000808836 0.00340365 0 0.0160943
-0.00176706 0.00728799 0 0.00805501
0.000366125 0.00308127 0 0.0110084
0.000142062 0.00271694 0 0.389671
0.000456136 0.0264018 0 0.00311517
0.000149779 0.00301624 0 0.00736925
8.09965e-005 0.015903 0 0.00740007
3.07264e-005 0.00286231 0 0.363625
-0.000148146 0.00339011 0 0.0321614
-0.0064378 0.0277565 0 0.000574918
0.00072806 0.00532362 0 0.0042394
-0.00065633 0.00335203 0 0.0132889
-0.000360464 0.000878987 0 0.386947
-9.67537e-005 0.00295742 0 0.339637
-0.000484113 0.00948683 0 0.00161715
-0.000565445 0.00399845 0 0.00867109
0.000588623 0.00111811 0 0.39208
0.000130395 0.00304539 0 0.0302518
0.000107754 0.00285149 0 0.372987
0.00165731 0.0250536 0 0.00327566
0.00285988 0.0119675 0 0.00551967
-9.54028e-005 0.00428588 0 0.00953468
-0.000124414 0.00317156 0 0.0560515
-0.00814733 0.0285856 0 0.000380041
-0.000216377 0.0031251 0 0.019372
0.00549751 0.012219 0 4.22878e-005
-0.00550796 0.012201 0 2.80935e-005
0.00287309 0.0132504 0 0.00271559
0.000396043 0.00090361 0 0.387353
-9.96587e-005 0.00294535 0 0.34618
-0.00215947 0.00674928 0 0.0103107
-0.000289559 0.000893856 0 0.385843
0.00184728 0.00894591 0 0.00677134
-0.000404895 0.00611192 0 0.00333953
-0.00085135 0.00350535 0 0.0160571
3.34633e-006 0.00298331 0 0.304089
0.00378526 0.0199019 0 0.000980975
-0.000528492 0.024373 0 0.0038757
-0.000842118 0.0116133 0 0.00378301
-0.00298148 0.0188909 0 0.00130214
5.9556e-005 0.0025331 0 0.39512
-0.000468824 0.00121303 0 0.39069
9.1581e-005 0.0171817 0 0.00811292
-0.00127026 0.0113439 0 0.00453132
0.00402234 0.0130084 0 0.000116619
-0.000363163 0.00496329 0 0.0054918
-0.00609252 0.0268039 0 0.000534153
0.000283831 0.00172705 0 0.395395
-0.000884834 0.00452052 0 0.00509143
0.000104251 0.00312707 0 0.0739711
0.00028648 0.000908897 0 0.385955
0.00627587 0.0218045 0 0.000458343
0.000138189 0.00301242 0 0.00790082
-8.45766e-005 0.00300744 0 0.244156
-0.000367296 0.0115469 0 0.00169645
4.43738e-005 0.00303088 0 0.239084
0.00481648 0.0179238 0 0.000603817
0.00149749 0.00436073 0 0.0145226
0.00128386 0.00510424 0 0.00456696
-0.000137123 0.00279496 0 0.383172
0.00010392 0.0048879 0 0.00607108
-0.00091848 7.16259e-005 0 0.452034
3.54985e-006 0.00298714 0 0.300604
0.000749152 0.00426831 0 0.00622895
-0.000130195 0.00286367 0 0.373202
0.00513916 0.0264131 0 0.000779546
-0.00145383 0.00693267 0 0.0049133
-0.000170314 0.00271408 0 0.391356
0.000708754 0.00344963 0 0.00931174
0.000173403 0.0026398 0 0.394769
0.00102924 0.00397184 0 0.00848309
7.04719e-005 0.00292897 0 0.346415
-0.000154347 0.00277069 0 0.386393
0.000152777 0.00306484 0 0.0256932
-0.0057264 0.0155753 0 0.000167813
-0.00516063 0.0124211 0 2.77272e-005
-0.000727401 0.00332353 0 0.0144445
0.00177507 0.00499121 0 0.0127881
-0.00104148 0.00729487 0 0.00225587
8.03056e-005 0.00285902 0 0.368127
0.000619507 0.00322392 0 0.0144278
0.000491741 0.00344599 0 0.0102492
-8.64345e-005 0.00319528 0 0.0701314
0.000495863 0.00327729 0 0.00869376
0.00629165 0.0165428 0 0.000173218
-0.000348261 0.00373379 0 0.0134145
0.00695359 0.012557 0 4.10722e-005
-0.00614658 0.0186042 0 0.00035119
0.00446424 0.0221677 0 0.000814165
-0.000789844 0.00391708 0 0.0064645
0.000117774 0.00196522 0 0.397336
-0.000255362 0.0148691 0 0.00573935
-0.00503812 0.0284552 0 0.00155819
-0.000107009 0.00253653 0 0.395951
0.000146628 0.00274959 0 0.38774
0.00773255 0.0309094 0 0.000752887
0.000159147 0.00499252 0 0.00574404
0.000514649 0.00313677 0 0.0114609
0.00101358 0.00492618 0 0.00424075
-0.00010231 0.00251506 0 0.396229
-0.000149253 0.0149017 0 0.00669307
-0.0026764 0.0106555 0 0.00652004
-0.000401914 0.00497223 0 0.00540416
-9.9778e-005 0.00250395 0 0.396559
-0.000167489 0.00307565 0 0.0220659
0.00547148 0.0254757 0 0.000626255
6.86885e-005 0.00304125 0 0.186668
-0.00443178 0.028435 0 0.0017655
-9.60567e-005 0.00299261 0 0.306137
0.00605816 0.0243911 0 0.000532776
-0.00166852 0.0218177 0 0.00378118
3.51271e-005 0.00306949 0 0.188937
0.00934401 0.0252145 0 0.000237433
0.000689131 0.0161709 0 0.00492276
-0.00185288 0.0231304 0 0.00339519
-0.000635695 0.0147353 0 0.00395853
0.000424951 0.000378919 0 0.466445
3.11571e-005 0.00341221 0 0.0366803
-0.00451594 0.0239154 0 0.000760793
4.55634e-005 0.00300278 0 0.282878
-0.000190882 0.0026229 0 0.396142
-0.00293428 0.0314144 0 0.00191633
0.000192455 0.0109275 0 0.00133293
-7.99306e-005 0.00301235 0 0.233994
-0.000103784 0.019352 0 0.00740272
0.000298059 0.00179298 0 0.396481
0.000318272 0.00306073 0 0.0100973
4.79498e-005 0.00267219 0 0.389155
0.000550505 0.00439983 0 0.00704743
-6.64966e-005 0.00296368 0 0.326589
-0.000353929 0.0037557 0 0.0131569
0.00136689 0.00417221 0 0.0155004
0.000288631 0.0043673 0 0.0083906
-0.000116817 0.00316526 0 0.0603836
0.000228982 0.00477361 0 0.00639907
-0.00010849 0.00292752 0 0.354631
0.00158742 0.0252298 0 0.0032175
0.00029744 0.00214644 0 0.40095
0.00012001 0.0179918 0 0.008281
-2.8464e-005 0.00302556 0 0.254576
-0.000121369 0.00301027 0 0.00980002
-0.000613293 0.003423 0 0.00819665
0.000416492 0.000739339 0 0.388959
0.00607599 0.0132862 0 5.70673e-005
-0.000118426 0.00301015 0 0.0102681
0.000338231 0.0030745 0 0.0107118
-0.000760719 0.00047075 0 0.408281
-0.000159712 0.00339978 0 0.0312344
0.00621185 0.0259584 0 0.000526988
-0.000407926 0.00403608 0 0.00977103
5.21801e-005 0.0048277 0 0.00637431
0.00820777 0.0174274 0 0.000120458
-0.000651027 0.00328042 0 0.0144214
-8.91944e-005 0.00296269 0 0.334575
-0.000640908 0.0223311 0 0.00481044
0.00498206 0.0148716 0 0.000196682
-0.000133404 0.00280466 0 0.381545
-0.00284514 0.0101497 0 0.00618085
0.00015129 0.00247549 0 0.398085
0.0036537 0.0164932 0 0.00108041
0.000170347 0.00269813 0 0.392235
-0.00192463 0.00759706 0 0.00858891
-0.00146113 0.00452985 0 0.0150855
0.00164564 0.0109866 0 0.00544676
0.00153691 0.0307746 0 0.00220005
0.000402223 0.00321336 0 0.00927986
-0.000561587 0.00118082 0 0.391849
-0.00107178 0.00734408 0 0.00226987
-4.6988e-005 0.00292472 0 0.344138
0.000121356 0.00262665 0 0.393473
-0.00180667 0.021881 0 0.00362989
-0.000301986 0.0030856 0 0.0113121
-0.000116548 0.00289513 0 0.365688
0.000683718 0.0116885 0 0.00348504
-0.000354426 0.00170815 0 0.396179
0.000168525 0.00302989 0 0.00944214
0.0016288 0.00554363 0 0.0107054
-0.000454254 0.00780077 0 0.00216484
9.99188e-005 0.00299126 0 0.306833
-0.000923631 0.00351832 0 0.0159796
-0.000513771 0.00531417 0 0.00435577
-0.000134682 0.0174176 0 0.00830717
0.000245462 0.00302872 0 0.00843019
-0.00010594 0.00296983 0 0.333227
0.000263028 0.00390471 0 0.0130316
0.000668464 0.00324245 0 0.0133361
-0.00016736 0.00267447 0 0.393236
9.47415e-005 0.00371123 0 0.0190071
0.00421743 0.0282356 0 0.0019314
0.000517536 0.00330043 0 0.00854351
7.86006e-005 0.00301308 0 0.236911
-0.00150253 0.0233222 0 0.00375729
3.50244e-005 0.00343033 0 0.0365364
0.00521285 0.0268086 0 0.00100019
-2.25255e-005 0.00298419 0 0.303622
0.000210866 0.0048041 0 0.00621078
-0.00060708 0.0165096 0 0.00599058
0.00212885 0.0061951 0 0.0107656
-2.66592e-005 0.00312601 0 0.135172
-0.00828018 0.0153779 0 6.47951e-005
-0.00170476 0.0244237 0 0.00337185
-2.90915e-005 0.00298341 0 0.304556
-0.00185381 0.0061466 0 0.0111281
3.45393e-006 0.00277635 0 0.378647
0.00147734 0.00677235 0 0.0054958
0.00789347 0.0314466 0 0.000747097
-0.00613399 0.0273266 0 0.000559139
6.50073e-005 0.00218408 0 0.398574
-0.00147779 0.0231807 0 0.00375928
-0.000188401 0.00264524 0 0.395032
-0.00075172 0.0114273 0 0.00348314
0.00122718 0.0181316 0 0.00330419
-0.000212778 0.0261997 0 0.00318075
-0.000849183 0.00348376 0 0.0163036
0.00262104 0.0134155 0 0.00364682