# U  FACE_DATA 23640
#  x  y  z  U_x  U_y  U_z  
-0.00296834 0.0159323 0 -538.46 2490.89 0
0.000794309 0.0100339 0 169.057 2764.89 0
0.00690979 0.0130745 0 394.501 327.575 0
0.000158008 0.0018211 0 -17.5254 130.402 0
-0.000662165 0.0113619 0 273.349 2633.47 0
-0.00203768 0.00587959 0 -552.693 1985.69 0
-0.000220137 0.00748479 0 -134.7 2774.78 0
0.00214531 0.0125841 0 -165.865 2433.83 0
-0.00164167 0.00702341 0 -309.459 2584.52 0
0.00020958 0.00306993 0 2290.49 653.356 0
4.59799e-005 0.00273939 0 -34.2044 432.63 0
0.00075606 0.00524313 0 925.441 2528.72 0
0.00107075 0.0257944 0 269.147 2652.8 0
-0.000458708 0.0115994 0 171.602 2723.38 0
-0.000900467 0.00350322 0 -1418.48 1442.74 0
-0.00222355 0.00655891 0 -434.397 2006.37 0
0.00442703 0.0182294 0 967.33 2454.36 0
7.09705e-005 0.00299924 0 -113.892 1029.05 0
-2.45517e-005 0.00292714 0 42.4632 727.338 0
-0.000543852 0.00394831 0 -1410.36 2149.84 0
7.98376e-005 0.00283498 0 -85.3764 522.018 0
0.00510868 0.0124654 0 584.661 210.352 0
7.37866e-005 0.00284217 0 -82.3854 535.266 0
-0.000122136 0.00287943 0 144.505 525.455 0
0.00117211 0.0120328 0 -307.411 2620.42 0
0.000340217 0.00636002 0 299.044 2726.96 0
-1.62375e-005 0.00331413 0 -103.262 2124.09 0
0.000288499 0.00391811 0 812.628 2357.75 0
0.00604323 0.0215883 0 1179.77 2415.98 0
0.0015748 0.0199438 0 297.02 2567.76 0
0.000642306 0.0286533 0 146.674 2727.94 0
-0.000788091 0.000235815 0 -5.46494 7.96415 0
8.45076e-005 0.00283429 0 -89.5098 518.161 0
-0.000766033 0.00453527 0 -1295.55 2316.55 0
-0.000556446 0.00360452 0 -1836.48 1649.98 0
-0.000694613 0.00330261 0 -1657.13 1211.09 0
0.00425461 0.0181246 0 946.781 2524.82 0
0.00563158 0.0299784 0 1087.63 2507.48 0
0.00374311 0.0125452 0 1508.28 1003.24 0
-0.000168184 0.00269727 0 94.5428 354.34 0
0.00100487 0.00483203 0 1397.44 2277.21 0
-0.00170325 0.00704586 0 -290.789 2544.59 0
-0.00047461 0.0123053 0 439.271 2637.13 0
-0.00401905 0.0129379 0 -1862.93 1332.52 0
0.000128446 0.00148328 0 -10.741 85.8636 0
0.000108141 0.00315803 0 919.482 1688.01 0
0.00299545 0.0176096 0 439.437 2551.64 0
0.00122698 0.00708374 0 761.136 2639.36 0
0.000214903 0.00307399 0 2275.32 644.168 0
0.00225142 0.0126586 0 -166.749 2416.15 0
0.000204708 0.00068009 0 3.19544 22.477 0
4.25297e-005 0.00299727 0 -65.973 1005.26 0
-0.000477288 0.00315875 0 -1836.06 931.087 0
-0.00378992 0.02149 0 -639.472 2657.18 0
0.000139812 0.00181138 0 -15.5002 128.439 0
0.000208917 0.00302796 0 1315.38 293.65 0
-0.00160791 0.0049468 0 -785.038 2023.57 0
0.000941143 0.00995448 0 23.9983 2682.97 0
8.9442e-006 0.010956 0 24.9172 2842.2 0
-0.000434056 0.00133506 0 29.4107 93.6522 0
0.000566946 0.0289715 0 109.524 2725.39 0
-7.40414e-005 0.003214 0 -580.264 1892.64 0
-0.000145493 0.00239699 0 39.6646 245.213 0
3.42483e-005 0.00298986 0 -60.5628 963.975 0
0.000575544 0.00987125 0 239.399 2842.15 0
3.71363e-005 0.00299095 0 -65.1288 970.365 0
-0.00247102 0.00772987 0 -292.799 2066.12 0
0.00096928 0.0118325 0 -335.053 2629.65 0
-9.22697e-005 0.00299969 0 167.495 1038.61 0
-0.000570617 0.0122505 0 428.054 2614.85 0
-0.000211411 0.00254812 0 75.1168 278.092 0
-0.000765289 0.00457715 0 -1269.72 2318.53 0
8.13068e-005 0.00294139 0 -145.552 710.544 0
-0.00437678 0.0203082 0 -829.274 2576.09 0
0.00226862 0.00661101 0 443.029 2002.45 0
-0.000832194 0.000220534 0 -5.86983 12.3088 0
-0.000164868 0.00301134 0 -347.414 49.2787 0
0.0012393 0.0259768 0 322.787 2654.24 0
-2.48279e-005 0.00292318 0 42.4597 716.527 0
0.000116572 0.00245177 0 -35.5768 265.184 0
9.77655e-005 0.00313112 0 847.21 1638.51 0
0.000279024 0.00328636 0 1688.73 1514.08 0
-5.75605e-005 0.0116355 0 35.853 2873.35 0
-7.47936e-005 0.0117342 0 35.5713 2863.4 0
0.000518168 0.00993111 0 225.719 2840.7 0
-0.000154608 0.0030256 0 -1978.9 472.487 0
4.53443e-005 0.00299839 0 -69.83 1013.55 0
-0.000161071 0.0027724 0 112.692 389.504 0
0.000104836 0.00293916 0 -174.734 647.842 0
-0.00100104 0.00361077 0 -1327.67 1515.62 0
-0.000510005 0.00921774 0 -232.702 2814.46 0
0.00100295 0.0100141 0 -137.708 2654.76 0
-0.000646084 0.00336418 0 -1955.37 1282.78 0
6.96906e-005 0.00293287 0 -121.736 705.856 0
-1.67264e-005 0.00300289 0 21.2526 1031.77 0
0.000173509 0.0227352 0 42.7141 2614.46 0
3.17037e-005 0.00298455 0 -59.0714 937.38 0
0.000312244 0.00306502 0 1811.13 584.965 0
-0.00212604 0.00906512 0 -92.5539 2402.01 0
-0.00049218 0.00322389 0 -2052.83 1020.72 0
0.000341345 0.00323843 0 1993.63 1120.18 0
-0.00385942 0.0216496 0 -639.628 2664.07 0
-0.000125834 0.0028813 0 144.494 516.536 0
0.00524627 0.0255212 0 781.844 2626.69 0
0.000713781 0.0036837 0 1983.64 1538.61 0
0.00601727 0.0299149 0 1147.15 2464.64 0
-0.000344095 0.00203632 0 43.4435 159.882 0
-0.0047341 0.0239481 0 -757.397 2628.48 0
-0.000460773 0.00539436 0 -544.718 2638.13 0
-0.00196148 0.00905338 0 -63.9265 2482.45 0
0.00143807 0.0303782 0 282.436 2738.72 0
7.94637e-005 0.00293894 0 -140.268 706.501 0
0.00013473 0.00481908 0 222.105 2627.61 0
0.00105264 0.00484794 0 1427.39 2265.18 0
0.000112877 0.0030262 0 1577.25 1329.3 0
-0.00781161 0.0282885 0 -1126.62 2582.19 0
-0.000846622 0.00344471 0 -1458.22 1367.4 0
-0.00206201 0.0306837 0 -402.552 2752.59 0
-0.00313594 0.0160362 0 -619.763 2550.57 0
0.00144289 0.0198776 0 351.808 2531.38 0
-0.000135136 0.00286502 0 141.696 475.471 0
-0.000205101 0.000950881 0 4.3567 36.1116 0
0.000372212 0.00308853 0 1744.12 701.168 0
0.000370404 0.000795868 0 -1.2768 34.6358 0
0.000201681 0.00347815 0 999.327 2125.58 0
-0.000147808 0.00278598 0 113.349 415.947 0
0.000218103 0.000637733 0 4.04882 20.1898 0
0.000195722 0.00313377 0 1802.7 1168.59 0
-0.00203813 0.00594128 0 -549.455 2021.86 0
0.00112067 0.00510142 0 1369.84 2328.05 0
5.16573e-005 0.00373385 0 197.305 2395.61 0
0.000381501 0.00336875 0 1825.76 1477.5 0
0.000860715 0.0258401 0 212.793 2678.44 0
-0.000116556 0.00339842 0 -675.692 2159.58 0
-0.00513668 0.0257477 0 -793.994 2606.17 0
-0.000162894 0.00277847 0 114.142 390.575 0
8.27341e-005 0.00277738 0 -69.5373 457.412 0
0.0010674 0.0118759 0 -318.478 2608.09 0
-4.09992e-005 0.00275121 0 31.974 443.794 0
3.29665e-005 0.00297369 0 -64.5114 886.029 0
-0.00204547 0.0090065 0 -92.996 2423.23 0
-0.00160474 0.0048986 0 -792.467 2010.12 0
8.25825e-005 0.00294819 0 -153.968 727.299 0
4.00473e-005 0.00273627 0 -29.5982 430.453 0
-9.41642e-005 0.00295571 0 178.615 721.084 0
0.00150619 0.00997327 0 -121.734 2573 0
8.22134e-005 0.00268838 0 -50.037 385.316 0
-0.000160791 0.00267895 0 87.6644 352.183 0
-0.000596112 0.00909085 0 -268.759 2810.38 0
-9.31423e-005 0.00299701 0 203.796 964.545 0
0.00235681 0.0126226 0 -139.173 2394.4 0
0.00203765 0.00557212 0 561.664 1787.07 0
-0.000165794 0.0115731 0 17.1416 2864.5 0
6.0159e-005 0.0021996 0 -11.1133 197.11 0
0.000371981 0.00362464 0 1380.67 2036.35 0
-0.00733688 0.029685 0 -1180.86 2520.63 0
-0.000180414 0.00743151 0 -122.661 2793.93 0
-0.000357207 0.004885 0 -523.15 2578.99 0
0.00253943 0.00813968 0 274.146 2115.25 0
-1.29377e-005 0.00332967 0 -77.2623 2120.93 0
-0.0010235 0.00361199 0 -1271.83 1466.21 0
-0.000285329 0.0030748 0 -2113.68 632.397 0
-0.000681311 0.00329291 0 -1634.99 1171.75 0
-0.00260727 0.00895038 0 -199.268 2091.38 0
0.00788717 0.0276195 0 1155.07 2588.33 0
0.0089704 0.0287411 0 1254.51 2431.42 0
-0.000270534 0.00232157 0 56.4416 209.957 0
-0.00014416 0.00312601 0 -1352.51 1438.9 0
-0.000337662 0.00201762 0 41.4434 158.411 0
0.0003962 0.00337513 0 1854.29 1481.77 0
0.00121317 0.00701782 0 769.756 2648.92 0
0.000116206 0.00302915 0 1698.47 1268.75 0
0.00225197 0.00666935 0 432.457 2024.37 0
-0.000507665 0.00548922 0 -585.867 2639.47 0
-0.000231863 0.00226746 0 46.0803 205.41 0
0.000244361 0.00226851 0 -47.8832 203.59 0
0.00111028 0.00505498 0 1373.63 2303.34 0
0.000121223 0.00304184 0 1570.66 1174.51 0
0.00012049 0.00243938 0 -35.9359 260.637 0
-0.0013386 0.0186068 0 -23.1118 2636.23 0
0.000102064 0.00149733 0 -8.6965 86.9451 0
0.000147362 0.00301363 0 1333.55 269.747 0
0.00106981 0.0119939 0 -327.005 2611.9 0
-0.000365953 0.00411169 0 -897.785 2408.86 0
0.00557444 0.020358 0 1172.11 2410.77 0
4.86089e-005 0.00307386 0 241.445 1481.21 0
-0.000177413 0.0035472 0 -793.586 2223.56 0
-0.000632994 0.00339325 0 -2075.76 1201.03 0
0.000487307 0.00130985 0 -32.2095 100.982 0
-0.000349424 0.00402777 0 -879.444 2383.58 0
-0.00177251 0.00629586 0 -458.397 2303.5 0
-7.92525e-005 0.00273084 0 56.2743 417.709 0
0.000241714 0.00100077 0 -7.23579 42.2517 0
-0.000154516 0.0114773 0 18.5358 2866.07 0
0.00502442 0.0222916 0 879.107 2611.14 0
-0.000166546 0.00272686 0 100.993 366.971 0
0.000707598 0.00365891 0 1990.61 1522.02 0
-0.00157418 0.0046046 0 -866.079 1879.72 0
0.000122725 0.00301099 0 1560.17 474.959 0
0.000172305 0.00324558 0 1254.03 1738.83 0
7.46185e-006 0.00286175 0 -9.66003 588.624 0
0.00533293 0.0140838 0 1823.7 1227.32 0
0.00520504 0.0284215 0 1094.28 2492.07 0
-0.00170266 0.00713636 0 -269.462 2557.42 0
4.38765e-005 0.00290514 0 -68.486 662.059 0
0.00035679 0.0099507 0 145.986 2856.25 0
0.000120447 0.00300871 0 1435.03 441.561 0
7.85992e-005 0.00284146 0 -86.5646 531.188 0
0.000146556 0.00306157 0 1832.61 1096.18 0
-0.000265484 0.00230758 0 54.3774 208.746 0
-0.000558184 0.0114136 0 192.5 2687.96 0
0.000873988 0.011905 0 -364.866 2638.71 0
0.00195145 0.0157285 0 -66.669 2566.87 0
0.000415959 0.00988952 0 172.78 2830.88 0
0.00204861 0.00551694 0 588.121 1729.84 0
0.00159497 0.00893937 0 -11.6561 2563.69 0
0.00125366 0.00690066 0 778 2623.33 0
-0.000537482 0.00397822 0 -1378.33 2188.14 0
-0.00245206 0.00890865 0 -175.157 2243.94 0
-0.00591638 0.015069 0 -2063.66 1633.4 0
0.00182541 0.0157696 0 -151.667 2557.46 0
-6.39179e-005 0.00274368 0 48.2493 432.811 0
1.24162e-005 0.00286011 0 -15.5929 585.083 0
0.000785526 0.00520879 0 958.475 2515.35 0
0.000119132 0.00288179 0 -142.711 537.571 0
0.000107617 0.00492998 0 150.665 2645.01 0
-0.000398708 0.00617064 0 -373.536 2713.37 0
-0.00031795 0.000861625 0 4.21977 34.2406 0
-0.0054742 0.0145195 0 -2201.28 1650.55 0
-0.00050603 0.0093045 0 -232.113 2814.57 0
-0.00281713 0.0160093 0 -437.308 2567.61 0
-0.00521587 0.0225645 0 -951.241 2629.54 0
0.000631138 0.00410172 0 1431.24 2165.26 0
0.00077675 0.0118594 0 -389.31 2643.65 0
-0.000339893 0.00491785 0 -501.421 2592.47 0
0.000278502 0.0033019 0 1668.7 1563.8 0
-0.000206291 0.0025551 0 75.295 282.561 0
0.0015782 0.00885327 0 -7.65675 2551.04 0
-0.000601058 0.00917374 0 -268.407 2810.48 0
0.000107852 0.00308374 0 999.237 1487.54 0
0.000329157 0.00324408 0 1955.09 1173.7 0
-0.000107456 0.0030138 0 -1476.7 1422.45 0
0.000995869 0.00478803 0 1418.83 2262.79 0
-0.00176263 0.00715431 0 -271.952 2493.79 0
0.000133123 0.00190024 0 -16.2042 141.637 0
0.00428452 0.0222831 0 689.561 2610.39 0
0.00249322 0.0134845 0 44.6026 2446.57 0
0.000209201 0.00303326 0 1729.16 385.065 0
1.124e-005 0.00241342 0 -2.98523 256.822 0
-0.000138897 0.00282521 0 124.827 451.313 0
-0.000422518 0.00130967 0 28.0904 89.7155 0
0.000897928 0.00602889 0 821.914 2607.52 0
0.00296246 0.0177704 0 441.431 2561.56 0
-0.000240922 0.0022558 0 46.612 202.226 0
0.000161456 0.0106342 0 55.6272 2842.69 0
-0.000169117 0.00269067 0 93.2505 351.093 0
-0.00600599 0.0132277 0 -861.534 512.323 0
-0.00498542 0.0226529 0 -860.483 2602.39 0
0.00035646 0.00189436 0 -38.3722 143.119 0
0.000360867 0.00193124 0 -40.3415 147.22 0
0.000188008 0.00159518 0 -17.0819 101.686 0
0.00315697 0.0294361 0 638.422 2666.79 0
0.000380728 0.00331446 0 1926.25 1275.33 0
-0.000407732 0.00541329 0 -469.323 2651.9 0
0.00599218 0.0187772 0 1404.52 2306.53 0
-0.000475668 0.0124289 0 451.388 2640.37 0
9.243e-005 0.00339173 0 503.709 2150.39 0
-0.0022067 0.00902531 0 -121.985 2365.01 0
0.000138287 0.010546 0 55.2203 2842.83 0
-4.59787e-005 0.00300592 0 53.1183 1062.32 0
0.000475334 0.00325723 0 2201.53 926.067 0
0.0081269 0.0233608 0 1458.71 2305.63 0
-0.000136448 0.00286953 0 137.134 466.394 0
0.000465099 0.00132931 0 -31.1761 99.7269 0
0.000196949 0.00312437 0 1829.66 1118.77 0
-0.000725979 0.00459524 0 -1195.67 2362.91 0
0.00566025 0.0201173 0 1160.4 2386.73 0
-0.000237093 0.000937504 0 4.87249 36.1338 0
-7.15727e-006 0.00298867 0 12.264 959.551 0
-0.000556128 0.00552312 0 -609.802 2636.3 0
-0.000151452 0.00278159 0 113.242 409.243 0
0.00604583 0.0167381 0 1820.46 2040.34 0
5.44524e-005 0.00307484 0 292.826 1489.63 0
3.5211e-005 0.00270778 0 -23.4662 407.414 0
-0.00210731 0.0068781 0 -390.572 2206.66 0
8.91266e-005 0.00319599 0 698.833 1835.03 0
-0.00242079 0.00974735 0 -66.494 2323.32 0
0.00135885 0.00413507 0 975.558 1678.54 0
-0.00108228 0.00797081 0 -582.731 2722.26 0
3.29303e-005 0.00271504 0 -22.2162 413.389 0
-0.000508078 0.0208168 0 -168.812 2579.8 0
-0.00472826 0.0198065 0 -960.806 2497.44 0
0.00152826 0.0090827 0 -31.0622 2585.96 0
-0.00252462 0.00897287 0 -197.817 2218.44 0
-4.09377e-005 0.0027578 0 32.7873 450.137 0
-0.00186927 0.0116808 0 174.297 2521.4 0
0.00108447 0.00518193 0 1309.28 2354.26 0
-0.00419392 0.0202211 0 -789.969 2531.63 0
0.000296615 0.00594885 0 298.65 2706.65 0
0.00365557 0.0156923 0 931.751 2449.67 0
-0.000138643 0.00311989 0 -1313.54 1444.38 0
3.44704e-005 0.00298593 0 -63.6 943.807 0
-0.000249911 0.000891772 0 3.40672 33.4047 0
0.00110337 0.0099601 0 -196.248 2652.41 0
8.04689e-005 0.00279643 0 -72.9887 477.299 0
0.00779157 0.0249956 0 1295.9 2436.66 0
0.000351464 0.00337107 0 1770.46 1567.61 0
-0.00012879 0.00323538 0 -982.834 1853.36 0
0.000155895 0.00168996 0 -15.4099 112.625 0
8.56943e-005 0.00294739 0 -158.334 718.397 0
0.0053023 0.0238774 0 837.497 2582.1 0
0.000238423 0.00318026 0 1803.31 1200.41 0
0.000230406 0.00226533 0 -45.946 204.249 0
-5.15866e-005 0.00292996 0 90.0283 718.024 0
2.57476e-005 0.00286927 0 -33.8115 598.438 0
0.000105066 0.00340141 0 568.524 2137.81 0
-0.0006343 0.00341198 0 -2083.98 1212.36 0
-0.00683177 0.0130924 0 -527.89 401.15 0
-1.54609e-005 0.00299907 0 21.4348 1011.28 0
-0.00215958 0.00656839 0 -424.585 2134.26 0
0.00301179 0.0141363 0 597.238 2408.01 0
-0.000723924 0.00463742 0 -1184.19 2378.79 0
-0.000555458 0.00358088 0 -1845.73 1616.98 0
0.000287933 0.00394954 0 796.623 2382.75 0
-0.00525881 0.0259389 0 -796.885 2624.86 0
-0.000235386 0.00314485 0 -1964 1039.22 0
-0.000664883 0.00104525 0 33.1626 107.651 0
0.00182857 0.0107598 0 -102.754 2525.15 0
0.00289308 0.0133881 0 420.339 2321.74 0
0.000556851 0.000459359 0 10.5364 14.8208 0
-6.31462e-005 0.00306344 0 -326.749 1453.68 0
0.00204396 0.0126442 0 -184.993 2445.16 0
-0.000369072 0.00408052 0 -906.188 2390.64 0
-0.00018247 0.00378321 0 -585.443 2346.4 0
0.000579156 0.0162179 0 -218.095 2537.49 0
0.00117061 0.0100074 0 -199.777 2616.29 0
0.000129771 0.00301154 0 1410.16 321.119 0
0.00050022 0.00329429 0 2219.33 995.838 0
-0.00194273 0.0117557 0 167.123 2474.9 0
0.000295066 0.00600891 0 297.996 2707.17 0
-0.000154748 0.0030213 0 -1700.01 426.263 0
8.51353e-005 0.00297491 0 -183.018 816.056 0
0.000370749 0.00364798 0 1348.62 2053.1 0
0.00032381 0.000892659 0 -5.31589 38.7112 0
-0.000114683 0.00273658 0 80.397 409.642 0
7.10543e-005 0.0030026 0 -98.6919 1061.56 0
-9.6647e-005 0.00324264 0 -725.612 1920.39 0
0.000733896 0.00537107 0 852.927 2562.68 0
0.000155197 0.00494735 0 228.529 2640.94 0
0.000610019 0.00412319 0 1377.61 2209.26 0
0.000353717 0.00194986 0 -40.2716 149.219 0
-0.000244432 0.00314026 0 -2013.24 972.181 0
-0.00502653 0.0232658 0 -847.511 2605.37 0
-0.00178789 0.0309983 0 -368.107 2738.47 0
-0.000579723 0.00361754 0 -1827.54 1635.25 0
0.00813841 0.0273314 0 1217.52 2511.76 0
-0.002496 0.0131044 0 59.5496 2377.34 0
-0.00431729 0.0290645 0 -862.711 2561.16 0
-0.000157683 0.00240005 0 42.7916 245.085 0
-6.09633e-005 0.00273787 0 44.6519 427.813 0
-0.000172602 0.00356894 0 -740.388 2232.34 0
5.95493e-005 0.00280503 0 -57.2284 495.375 0
3.59382e-005 0.00297531 0 -70.4787 891.916 0
0.0038221 0.0156522 0 974.132 2393.93 0
0.00151814 0.00899556 0 -29.169 2583.96 0
0.00891208 0.0209237 0 1909.95 2120.61 0
0.00932881 0.0247628 0 1539.18 2324.22 0
0.000401147 0.00319889 0 2229.65 816.999 0
-1.37134e-005 0.00292236 0 23.3408 717.447 0
-0.00149883 0.0199029 0 -312.759 2629.87 0
-0.000151382 0.00307642 0 -1721.6 1121.83 0
-9.99299e-005 0.00297786 0 205.133 743.986 0
0.00528439 0.0241343 0 840.121 2581.76 0
2.61097e-005 0.00286432 0 -33.4437 589.784 0
0.000206875 0.00349712 0 990.785 2111.46 0
-0.00509797 0.0234717 0 -851.049 2610.06 0
-0.000597722 0.000953511 0 27.6905 85.4486 0
-0.00793898 0.0155863 0 -1618.75 1383.77 0
0.00183935 0.0106624 0 -103.659 2520.64 0
7.52069e-005 0.00339368 0 415.978 2173.76 0
-7.77056e-005 0.00294222 0 141.033 720.479 0
-9.8985e-005 0.00297992 0 207.941 755.519 0
0.00161823 0.00911669 0 -13.8613 2572.23 0
8.21842e-005 0.00297527 0 -175.942 827.584 0
-0.00188133 0.00900925 0 -63.8924 2545.86 0
-0.00617827 0.0275965 0 -970.507 2611.22 0
-0.000490092 0.00321051 0 -2010.39 1015.37 0
0.00945115 0.0288751 0 1353.38 2539.56 0
-0.00016434 0.00272067 0 99.6497 368.085 0
-0.00797941 0.0222445 0 -1498.46 2199.82 0
-4.01564e-005 0.00301654 0 19.9006 1125.68 0
-0.00180498 0.00506765 0 -693.006 1847.07 0
-0.000161305 0.00301261 0 -612.151 86.2885 0
-0.000482063 0.00316965 0 -1875.66 970.455 0
-0.000942791 0.00378901 0 -1616.16 1705.78 0
-0.000134053 0.00282435 0 123.223 461.203 0
0.000242746 0.000963685 0 -6.00669 39.4331 0
0.00525461 0.0274919 0 1085.98 2473.06 0
0.00306352 0.0179257 0 450.803 2578.05 0
-0.000120066 0.00324295 0 -910.332 1879.44 0
-0.00319507 0.0125029 0 -1079.66 2274.09 0
-0.000290892 0.00233844 0 60.7822 206.886 0
0.00159844 0.00482417 0 819.66 1976.74 0
0.00787978 0.0236538 0 1373.14 2355.82 0
0.00145057 0.0259009 0 383.577 2644.31 0
-0.000336257 0.00619409 0 -306.252 2767.94 0
-0.000333917 0.00172186 0 30.6239 123.539 0
0.00577509 0.0216659 0 1137.96 2481.97 0
0.000667048 0.00332313 0 1786.42 1299.35 0
0.00248969 0.00807562 0 296.358 2159.28 0
-0.00160944 0.00467215 0 -841.832 1867.84 0
1.98969e-005 0.00242157 0 -5.70694 259.605 0
0.000286635 0.0021356 0 -43.8829 176.757 0
-0.00161117 0.00618199 0 -467.773 2365.36 0
7.54635e-005 0.00268391 0 -45.5126 383.415 0
0.00101663 0.00497361 0 1324.71 2323.08 0
9.78423e-005 0.00320089 0 758.415 1820.01 0
-0.000282098 0.0245537 0 -98.6457 2657.75 0
0.00160534 0.0053807 0 727.896 2281.93 0
0.000645555 0.00426047 0 1311.74 2242.09 0
0.000344665 0.00191282 0 -38.253 145.331 0
-4.37224e-005 0.0030135 0 29.368 1109.85 0
0.000410526 0.00592784 0 401.878 2701.44 0
-0.00161438 0.00462874 0 -833.274 1778.48 0
0.000197339 0.00307463 0 2220.49 787.826 0
-0.00787948 0.0250527 0 -1304.4 2420.17 0
0.000365567 0.000836364 0 -3.5036 37.2359 0
0.000428529 0.0031113 0 1721.81 739.882 0
6.29689e-005 0.00280138 0 -59.9079 489.455 0
-0.00260928 0.0115127 0 46.2222 2282.17 0
0.00511854 0.0182191 0 1214.54 2375.08 0
-0.000191506 0.0013612 0 13.9641 73.9818 0
0.000255298 0.00234631 0 -57.0971 217.972 0
7.80872e-005 0.00285378 0 -90.3707 547.636 0
-6.93966e-006 0.00361778 0 -19.3529 2365.09 0
-0.000112834 0.00273034 0 77.079 405.848 0
-0.000151306 0.00308356 0 -1660.24 1175.65 0
0.000794921 0.00339323 0 1563.12 1393.19 0
0.000120559 0.00308016 0 1188.58 1418.54 0
-0.00060963 0.000994212 0 29.7565 94.2151 0
-0.000187211 0.00375918 0 -645.66 2342.26 0
-0.000179749 0.00239602 0 47.8222 241.444 0
0.000583853 0.00320912 0 1666.77 1086.31 0
-0.000220391 0.00307379 0 -2204.8 656.115 0
-3.20721e-005 0.00313154 0 -231.738 1686.05 0
-0.00240166 0.00829286 0 -232.109 2232.85 0
-0.000107553 0.0032363 0 -824.825 1887.23 0
0.000485775 0.00324734 0 2187.21 932.504 0
-1.6528e-005 0.00283252 0 17.9602 541.281 0
0.000388916 0.00319175 0 2225.37 816.777 0
-0.000191501 0.000101552 0 -0.199669 0.53056 0
-0.00244196 0.00780076 0 -326.265 2098.87 0
-0.000237142 0.00223825 0 44.3976 199.014 0
-0.00179252 0.00511195 0 -695.247 1913.51 0
7.86645e-005 0.00300926 0 -38.761 1153.81 0
-0.00578012 0.0268724 0 -931.933 2735.91 0
-0.00101007 0.00801211 0 -544.822 2736.51 0
0.000363332 0.00337974 0 1769.16 1566.26 0
0.000391279 0.00186159 0 -38.9419 139.912 0
0.000433244 0.00317308 0 2201.07 860.652 0
0.00161612 0.00543442 0 719.749 2291.45 0
-0.00207993 0.00693738 0 -380.033 2211.84 0
0.000483914 0.00474879 0 757.454 2539.27 0
0.000802557 6.40842e-005 0 0.171586 0.105054 0
0.00066144 0.00330597 0 1761.13 1265.98 0
0.00141767 0.0197289 0 301.09 2536.49 0
-0.000651775 0.00329699 0 -1748.92 1205.98 0
0.000282152 0.00304241 0 881.978 192.421 0
-0.000357054 0.00319624 0 -2169.58 894.528 0
-0.00178284 0.00623412 0 -463.31 2284.5 0
3.8992e-005 0.00380209 0 138.964 2441.78 0
-0.00100109 0.0210667 0 -327.656 2551.65 0
0.000165033 0.00158259 0 -14.8582 99.2299 0
0.00864187 0.0174253 0 1899.81 1808.2 0
0.00315453 0.0128329 0 871.563 2403.18 0
-8.64597e-005 0.00318341 0 -706.525 1800.61 0
-0.000259494 0.0126492 0 419.875 2703 0
0.000466396 0.000355167 0 4.65403 4.46694 0
0.000246728 0.00318708 0 1812.26 1184.08 0
-0.000724122 0.000493878 0 4.5236 46.2163 0
-0.00236534 0.0089472 0 -153.521 2306.83 0
-0.00585899 0.0184819 0 -1367.93 2181.55 0
-0.000109395 0.00425783 0 -224.141 2564.45 0
-0.000225082 0.00307869 0 -2156.58 638.155 0
0.00116126 0.00383867 0 1144.19 1668.54 0
0.000146244 0.00305529 0 1949.44 1064.8 0
0.000106639 0.00285591 0 -119.288 526.509 0
0.00516349 0.0142403 0 1857.75 1438.49 0
-0.000547118 0.0281975 0 -136.886 2721.14 0
-0.00314055 0.0188201 0 -522.706 2622.15 0
6.39205e-005 0.0034062 0 360.179 2190.46 0
0.000746714 0.00049437 0 -5.5373 53.7463 0
0.00226648 0.0258744 0 594.557 2626.9 0
-0.000137355 0.00283875 0 127.591 459.946 0
0.00173233 0.0108179 0 -135.148 2552.96 0
-0.000334456 0.00625618 0 -281.847 2721.5 0
-0.000652252 0.00338145 0 -1976.19 1280.51 0
-6.89277e-005 0.00306466 0 -395.679 1473.4 0
0.000126795 0.00304178 0 1783.31 1181.07 0
0.00478399 0.0277755 0 1043.8 2537.09 0
0.000516287 0.0229306 0 150.314 2603.13 0
5.89116e-005 0.00254342 0 -23.2835 306.447 0
-0.00795861 0.0246948 0 -1319.71 2438.96 0
0.00133689 0.00999394 0 -160.785 2594.42 0
-0.000118825 0.0220921 0 -54.5596 2594.46 0
6.34909e-005 0.0107046 0 36.663 2844.21 0
-0.000946741 0.00381309 0 -1669.18 1687.84 0
0.00581241 0.0241952 0 937.178 2506.18 0
-0.00487736 0.01991 0 -962.194 2470.6 0
0.00170829 0.0256098 0 459.346 2629.32 0
9.98067e-005 0.00316224 0 836.462 1720.21 0
0.00308063 0.0142797 0 605.17 2393.51 0
-0.000279242 0.00307977 0 -2182.43 630.189 0
-0.000183934 0.00303725 0 -2118.83 508.604 0
7.83288e-005 0.00286324 0 -94.7365 561.785 0
-0.000440884 0.00514493 0 -572.401 2602.18 0
0.000455558 0.00477565 0 709.425 2557.34 0
0.00520625 0.0221693 0 947.091 2609.05 0
-0.00179507 0.00722781 0 -273.208 2475.27 0
5.54873e-005 0.00266826 0 -32.0738 376.107 0
-0.00157971 0.00456195 0 -841.224 1794.41 0
4.18607e-005 0.00302762 0 13.7192 1197.13 0
-0.000194972 5.19224e-005 0 -0.0942306 0.248252 0
-0.000846289 0.00342394 0 -1383.06 1295.25 0
-0.00105965 0.00823661 0 -521.686 2733.29 0
0.000163413 0.00479131 0 269.821 2626.14 0
-8.2874e-005 0.00288534 0 110.766 592.818 0
0.00157378 0.00552232 0 684.048 2341.92 0
-7.66839e-005 0.00293931 0 136.205 713.693 0
0.000101978 0.0109948 0 43.6782 2847.2 0
-0.000363872 0.00601296 0 -347.839 2709.77 0
0.000117978 0.00287815 0 -139.852 536.398 0
0.000219153 0.00318835 0 1706 1327.18 0
-0.00163196 0.00449872 0 -735.37 1536.28 0
-0.000221409 0.00303399 0 -1508.8 346.488 0
-0.000370966 0.0244074 0 -122.639 2650.54 0
-0.000466554 0.00315829 0 -1875.16 936.34 0
0.000396164 0.00331941 0 1963.59 1247.15 0
-0.00482666 0.0238063 0 -766.896 2623.04 0
0.00133411 0.00522841 0 1099.81 2390.46 0
-0.00267568 0.00982141 0 -90.0809 2132 0
-0.000480207 0.0219659 0 -177.51 2594.16 0
0.00177473 0.0106071 0 -113.197 2531.17 0
0.000428512 0.00597987 0 403.669 2701.36 0
0.00330832 0.0202369 0 501.649 2611.15 0
-0.00036699 0.012473 0 444.096 2670.35 0
-0.000901486 0.00347959 0 -1360.34 1338.42 0
-9.70158e-005 0.00294708 0 173.871 691.873 0
-0.00110466 0.0144253 0 432.315 2608.41 0
-0.00107199 0.0143087 0 428.034 2598.79 0
0.000113095 0.0030798 0 1070.09 1454.52 0
0.000776547 0.0117402 0 -398.615 2650.83 0
-0.000196596 0.00302496 0 -1213.12 228.011 0
-0.00581483 0.0148124 0 -2109.85 1632.63 0
0.000125326 0.00308478 0 1251.63 1401.56 0
-0.00172589 0.0230235 0 -529.262 2575.9 0
-0.00123798 0.0114294 0 296.364 2636.48 0
-0.000106038 0.00301072 0 -1434 1426.55 0
7.68012e-005 0.00277918 0 -65.3216 461.574 0
-0.000218387 0.00226751 0 43.8443 206.265 0
0.00288382 0.0120736 0 -13.4707 2096.46 0
0.000136685 0.00272066 0 -88.2171 388.186 0
0.00126396 0.00994364 0 -172.224 2600.48 0
0.000169734 0.00323168 0 1271.56 1713.84 0
3.33298e-005 0.00296283 0 -65.3771 840.31 0
7.38909e-005 0.00285244 0 -85.2959 548.22 0
0.00226662 0.00684142 0 419.179 2098.87 0
-4.80444e-005 0.00288948 0 68.5386 627.555 0
0.000117291 0.00304527 0 1370.61 1310.79 0
0.00044057 0.00316393 0 2178.57 973.666 0
0.00025781 0.000139806 0 0.429686 0.737662 0
-0.000553437 0.0115383 0 255.342 2679.02 0
0.00174054 0.0109254 0 -133.655 2557.41 0
-0.00657824 0.0304887 0 -1211.53 2481.76 0
-0.00287878 0.0309438 0 -554.133 2713.01 0
-1.74214e-005 0.00292383 0 29.8419 720.503 0
0.000417861 0.00311152 0 1776.26 804.824 0
-0.000158816 0.00302837 0 -2054.56 426.093 0
0.000540608 0.00339996 0 2110.23 1213.99 0
0.00322243 0.0179545 0 570.863 2587.8 0
-0.000159371 0.0013528 0 11.5352 71.5182 0
0.000126077 0.0159893 0 -15.933 2519.68 0
-0.00432652 0.0294311 0 -865.902 2564.14 0
0.0015673 0.00546801 0 718.696 2373.36 0
-5.0904e-005 0.00292621 0 87.1713 708.532 0
-0.000106737 0.00293051 0 168.749 625.819 0
0.00275932 0.0110589 0 33.3367 2206.55 0
0.000556951 0.00340784 0 2106.72 1202.51 0
0.000399007 0.0063813 0 339.279 2728.37 0
-4.55764e-005 0.00288684 0 63.5655 623.186 0
5.78688e-005 0.00240298 0 -16.2448 252.358 0
-0.00135948 0.0128543 0 356.631 2635.56 0
0.00105587 0.00489705 0 1420.97 2296.49 0
-0.00180772 0.00736401 0 -269.015 2490.59 0
8.62884e-005 0.0107917 0 36.8818 2844.27 0
-1.73838e-005 0.00299616 0 27.041 995.751 0
-0.000559779 0.00402893 0 -1390.48 2200.62 0
-0.000129894 0.00339006 0 -752.075 2127.84 0
-0.00108645 0.0209701 0 -331.401 2552.2 0
-0.000355289 0.00318516 0 -2174.9 860.559 0
6.75287e-005 0.00268766 0 -41.3826 387.699 0
-1.6399e-005 0.00282695 0 17.637 533.995 0
0.000375645 0.00184967 0 -37.6359 138.575 0
0.000226595 0.00318087 0 1780.44 1287.83 0
-0.00157723 0.0197887 0 -246.157 2612.4 0
0.000153682 0.00302297 0 1890.51 412.503 0
-0.000983791 0.00376429 0 -1496.03 1769.89 0
0.00320404 0.0139037 0 718.688 2157.67 0
-0.000399729 0.0051532 0 -500.864 2631.35 0
-8.43671e-005 0.0028893 0 115.698 598.146 0
0.00153091 0.0204307 0 459.847 2656.27 0
0.0023948 0.0125217 0 -138.798 2392.49 0
0.000662239 0.00525468 0 800.623 2571.15 0
-0.00103759 0.0179087 0 92.6223 2620.15 0
-0.00194218 0.00558429 0 -603.752 1998.83 0
-0.000960129 0.00376594 0 -1540.47 1753.73 0
-0.000309837 0.00306474 0 -1644.75 562.16 0
0.00162461 0.00920594 0 -14.0973 2568.42 0
0.00346181 0.0203111 0 541.866 2662.2 0
0.000412094 0.000782235 0 -1.61161 36.4098 0
4.10836e-005 0.00290739 0 -64.8252 668.781 0
0.00107752 0.00513333 0 1311.21 2352.08 0
-0.00139776 0.00696247 0 -592.531 2610.9 0
5.83714e-005 0.0023895 0 -15.8094 248.154 0
0.000501828 0.0119171 0 -394.651 2676.95 0
-2.97555e-005 0.00300349 0 39.0813 1038.41 0
0.00113092 0.00612109 0 991.296 2562.36 0
3.11664e-005 0.00285722 0 -38.4916 576.521 0
-0.000756348 0.0223669 0 -265.043 2597.54 0
0.000606022 0.00322532 0 1666.76 1124.25 0
0.00858419 0.0213223 0 1861.32 2220.44 0
0.00228739 0.00873166 0 179.641 2347.91 0
-0.00330691 0.0124678 0 -1322.8 2106.93 0
-0.00135503 0.018735 0 -32.2304 2635.28 0
-0.00782909 0.0173425 0 -2103.07 1781.66 0
0.000179373 0.00168518 0 -17.4227 112.693 0
0.000181353 0.0228576 0 42.7769 2614.16 0
0.00116853 0.00608209 0 1042.21 2539.94 0
0.00534216 0.0272787 0 1047.99 2518.09 0
0.000808836 0.00340365 0 1553.46 1386.68 0
-0.00176706 0.00728799 0 -274.161 2502.02 0
0.000366125 0.00308127 0 1618.79 608.573 0
0.000142062 0.00271694 0 -90.0408 382.922 0
0.000456136 0.0264018 0 111.456 2675.31 0
0.000149779 0.00301624 0 1546.33 282.445 0
8.09965e-005 0.015903 0 -15.0822 2514.06 0
3.07264e-005 0.00286231 0 -38.901 585.082 0
-0.000148146 0.00339011 0 -859.255 2091.6 0
-0.0064378 0.0277565 0 -948.123 2626.62 0
0.00072806 0.00532362 0 857.293 2560.36 0
-0.00065633 0.00335203 0 -1885.43 1287.44 0
-0.000360464 0.000878987 0 6.4512 38.2048 0
-9.67537e-005 0.00295742 0 183.455 717.347 0
-0.000484113 0.00948683 0 -199.808 2823.41 0
-0.000565445 0.00399845 0 -1400.57 2178.33 0
0.000588623 0.00111811 0 -33.9552 104.557 0
0.000130395 0.00304539 0 1780.78 1183.09 0
0.000107754 0.00285149 0 -118.015 520.032 0
0.00165731 0.0250536 0 452.682 2615.27 0
0.00285988 0.0119675 0 -22.8835 2029.45 0
-9.54028e-005 0.00428588 0 -206.659 2572.52 0
-0.000124414 0.00317156 0 -1055.66 1699.67 0
-0.00814733 0.0285856 0 -1145.41 2615.07 0
-0.000216377 0.0031251 0 -1942.46 1014.4 0
0.00549751 0.012219 0 194.946 92.9148 0
-0.00550796 0.012201 0 -164.78 88.3905 0
0.00287309 0.0132504 0 374.745 2310.81 0
0.000396043 0.00090361 0 -8.74397 45.0357 0
-9.96587e-005 0.00294535 0 175.689 679.208 0
-0.00215947 0.00674928 0 -431.621 2166.39 0
-0.000289559 0.000893856 0 4.55847 35.3767 0
0.00184728 0.00894591 0 42.707 2504.44 0
-0.000404895 0.00611192 0 -374.915 2711.18 0
-0.00085135 0.00350535 0 -1550.29 1500.76 0
3.34633e-006 0.00298331 0 -5.76937 934.825 0
0.00378526 0.0199019 0 675.979 2548.24 0
-0.000528492 0.024373 0 -169.724 2650.08 0
-0.000842118 0.0116133 0 331.052 2612.56 0
-0.00298148 0.0188909 0 -470.813 2625.83 0
5.9556e-005 0.0025331 0 -22.8865 302.157 0
-0.000468824 0.00121303 0 28.3996 86.9481 0
9.1581e-005 0.0171817 0 -6.15938 2499.58 0
-0.00127026 0.0113439 0 285.037 2629.45 0
0.00402234 0.0130084 0 1680.81 1253.63 0
-0.000363163 0.00496329 0 -519.26 2594.51 0
-0.00609252 0.0268039 0 -945.308 2675.03 0
0.000283831 0.00172705 0 -27.5232 121.795 0
-0.000884834 0.00452052 0 -1485.34 2247.95 0
0.000104251 0.00312707 0 911.192 1618.32 0
0.00028648 0.000908897 0 -5.03522 37.7167 0
0.00627587 0.0218045 0 1230.99 2495.99 0
0.000138189 0.00301242 0 1325.51 320.455 0
-8.45766e-005 0.00300744 0 22.0428 1176.07 0