/*--------------------------------*- C++ -*----------------------------------*\
  =========                 |
  \\      /  F ield         | OpenFOAM: The Open Source CFD Toolbox
   \\    /   O peration     | Website:  https://openfoam.org
    \\  /    A nd           | Version:  8
     \\/     M anipulation  |
\*---------------------------------------------------------------------------*/
FoamFile
{
    version     2.0;
    format      ascii;
    class       volScalarField;
    location    "7e-05";
    object      alphat;
}
// * * * * * * * * * * * * * * * * * * * * * * * * * * * * * * * * * * * * * //

dimensions      [1 -1 -1 0 0 0 0];

internalField   nonuniform List<scalar> 
23640
(
2.96979e-07
3.44827e-06
4.40767e-10
0.00254183
3.80849e-06
2.58062e-06
1.97803e-06
2.52129e-06
1.1859e-05
1.31542e-06
0.000709868
4.5894e-06
1.76443e-06
3.45718e-06
2.26862e-06
2.09162e-06
1.0284e-07
0.000241482
0.000637145
1.06509e-05
0.000459301
7.86622e-11
0.000486376
4.55334e-05
4.26882e-06
3.04688e-06
9.66472e-05
1.74162e-05
5.17087e-08
2.66421e-06
1.28615e-06
0.0358106
0.000428495
6.70732e-06
7.0725e-06
1.58336e-06
1.14532e-07
4.60046e-07
1.98995e-09
8.23059e-05
4.90701e-06
1.14292e-05
3.48662e-06
5.29575e-09
0.0057686
7.47939e-05
2.91127e-07
3.52129e-06
1.36803e-06
1.95225e-06
0.176233
0.000472516
1.29938e-06
1.87549e-07
0.00269637
3.27709e-08
5.53025e-06
4.78186e-06
9.64017e-07
0.00245423
1.23458e-06
0.000108549
0.000804195
0.000531165
1.22867e-06
0.000515432
2.17842e-06
4.42852e-06
2.4088e-05
3.72566e-06
8.0574e-05
6.45455e-06
0.000264714
1.33932e-07
1.91679e-06
0.00885943
1.1502e-10
1.67459e-06
0.000639446
0.000834378
8.66823e-05
1.50459e-05
1.50161e-06
1.588e-06
1.15754e-06
2.75839e-07
0.000453542
2.85673e-06
4.84674e-05
2.40666e-06
1.29114e-06
4.93723e-06
4.35417e-06
0.000386271
0.000561693
3.1337e-06
0.000550907
1.51406e-07
5.11226e-06
3.01842e-06
6.2514e-06
1.87089e-07
1.7429e-05
2.92309e-07
5.35639e-06
4.03115e-07
0.000287562
1.54718e-07
5.42521e-06
5.9698e-06
1.06542e-06
0.000286554
7.50551e-06
4.89634e-06
2.62691e-06
1.0505e-07
2.14957e-06
9.27066e-07
2.76199e-07
2.9012e-06
1.9858e-06
0.0305287
1.71897e-07
0.0351242
3.46779e-05
4.36569e-05
0.241455
9.76704e-06
2.70746e-06
4.57606e-06
2.82002e-05
9.69577e-06
1.84954e-06
5.55925e-05
3.88096e-07
1.30508e-06
0.000520872
4.38233e-06
0.000714133
0.000563911
5.59903e-06
5.48421e-06
0.000234439
0.000727862
0.00010787
5.54882e-06
0.000637465
0.000166763
1.35495e-06
2.35136e-05
1.63006e-06
3.58868e-07
1.6945e-06
0.00149995
1.7523e-05
2.55918e-07
1.97142e-06
7.68235e-06
1.35404e-06
9.49145e-05
2.24333e-06
8.93558e-07
1.5055e-06
1.36597e-06
6.35048e-08
4.53046e-08
0.000145024
3.02953e-05
0.000369794
9.30733e-06
3.53989e-06
2.51186e-06
1.85186e-06
4.97159e-06
0.000551967
0.000454907
4.57167e-06
5.46718e-06
0.000838595
2.64135e-06
0.00577051
1.00393e-08
4.37222e-06
1.48909e-05
5.73335e-08
0.000247874
3.72987e-05
5.1022e-06
0.00156518
1.60944e-05
1.03942e-05
0.000601248
0.0220902
1.61232e-06
8.62074e-08
4.23599e-05
5.43124e-06
3.50509e-06
1.00323e-08
3.84446e-05
0.000694164
4.93226e-09
4.96742e-07
1.12188e-05
0.000579854
1.04377e-06
5.13218e-09
0.000457281
4.28154e-06
0.000199925
3.51623e-06
4.36683e-06
9.32263e-07
1.03903e-06
3.18778e-07
6.44499e-06
4.37152e-06
1.021e-05
2.38274e-06
8.79527e-09
1.07588e-06
0.000650388
0.000691117
4.58127e-06
6.34609e-05
7.09566e-06
3.41754e-06
0.0310597
8.96013e-09
1.29706e-06
3.91601e-07
9.66913e-08
9.40489e-06
4.14645e-06
7.37495e-06
1.55854e-05
9.066e-05
6.36515e-06
1.36488e-06
4.91468e-05
7.10512e-06
4.43232e-07
4.99805e-06
1.04681e-05
0.00227995
1.3408e-07
7.50832e-07
1.18302e-07
0.00113589
3.59168e-05
0.00292287
3.09878e-06
2.93375e-07
0.000521143
9.16315e-07
8.61594e-05
8.85177e-10
1.08237e-07
0.000587892
0.000425856
0.00392107
9.84252e-07
7.22518e-06
5.3315e-06
3.42411e-08
3.4661e-06
6.36136e-05
4.54816e-06
9.1231e-07
0.000441135
3.56329e-06
2.24815e-08
7.54208e-07
0.00186381
8.17593e-06
7.03583e-06
5.619e-08
0.0294901
0.00060478
4.89982e-06
3.82382e-05
1.49255e-08
0.000224775
0.000764058
5.31585e-06
9.83119e-05
3.21681e-06
3.1371e-06
2.92603e-06
0.00076165
4.59209e-06
1.03966e-07
6.39003e-06
2.12549e-06
0.000709111
4.82454e-06
4.26714e-06
1.50979e-07
3.65979e-06
1.14593e-07
3.18916e-05
0.000538366
0.0358554
5.2584e-06
0.000507541
3.14116e-08
1.18748e-05
6.16059e-05
0.00338234
0.000204382
8.05834e-08
1.00351e-05
0.000567952
0.000524511
0.000663943
5.9822e-05
5.07194e-06
6.09152e-10
0.000572446
3.41178e-06
2.21759e-07
6.87271e-06
7.07952e-06
1.67041e-05
3.75465e-07
8.01237e-06
5.81469e-05
4.56403e-06
2.58501e-07
0.108103
0.000207699
2.66911e-06
1.50034e-05
2.44918e-05
7.62014e-06
5.28841e-06
9.34361e-09
3.98471e-06
4.43813e-06
3.63376e-06
1.1298e-07
0.000142796
1.67676e-05
0.0264186
0.00039251
0.000231141
8.53208e-05
4.60308e-06
6.65691e-06
9.74421e-06
0.000435994
6.86053e-06
9.92413e-08
9.12429e-07
6.9393e-06
3.75953e-08
9.89036e-07
7.57366e-07
0.000730527
0.000666503
3.56635e-05
0.000601075
0.000548646
9.35963e-08
6.32374e-06
1.24937e-08
1.96456e-08
2.99666e-06
0.000660911
2.65384e-06
1.05151e-05
1.18287e-05
8.11983e-08
0.000665831
3.35972e-05
9.85954e-08
0.00190635
4.62804e-09
4.58878e-06
6.66267e-05
0.000306305
1.24834e-05
6.15001e-06
0.000176127
6.52976e-06
3.16813e-07
2.72338e-06
3.54081e-08
5.7005e-05
2.41807e-08
0.000444153
2.24701e-06
1.55018e-09
1.42904e-06
8.02057e-06
7.40178e-05
0.0259429
4.09896e-07
2.77758e-07
6.77401e-05
3.12775e-08
1.44602e-05
5.47663e-06
2.74945e-08
1.73528e-06
3.27969e-06
0.0015232
5.95205e-08
2.28634e-06
1.60342e-06
3.39195e-06
0.00111893
0.000478565
1.34799e-05
0.000671333
4.54167e-06
9.10979e-05
2.19237e-06
1.09735e-05
8.51136e-06
0.000623105
0.000433917
3.55281e-06
3.22062e-06
1.96721e-06
3.6681e-08
0.0286595
2.25798e-07
0.000591175
1.48426e-06
5.71752e-08
0.00709387
0.000191954
0.000442531
4.03507e-05
0.000411957
1.23638e-05
1.67506e-06
2.62243e-05
0.00117358
2.66738e-05
0.000610975
7.12231e-07
2.19995e-06
0.000214631
2.89983e-06
7.68649e-05
3.06742e-06
0.000702058
3.01115e-06
46.3223
2.39027e-06
0.000582923
2.44083e-06
0.000143615
3.61319e-07
2.40034e-06
1.16668e-05
0.000350708
1.79481e-06
1.10206e-05
5.32543e-06
7.14835e-06
5.3147
2.09452e-06
2.91971e-06
2.28153e-06
4.04354e-09
4.69536e-06
1.04467e-05
2.67312e-05
3.6389e-06
0.00425754
6.98789e-09
7.69372e-08
0.000102389
3.75286e-06
0.903468
9.86093e-06
0.00528963
3.20076e-06
4.15109e-08
1.42039e-05
2.26965e-06
2.72677e-06
3.35548e-06
0.000215788
8.35465e-09
1.36197e-06
2.55359e-07
6.38928e-05
0.00301171
1.42365e-06
3.19378e-05
4.69896e-06
3.26134e-06
4.48551e-06
0.000176278
3.87862e-06
5.74428e-07
3.04749e-06
0.000890436
3.68618e-08
5.42228e-06
3.65193e-06
9.10285e-07
8.08013e-06
5.9263e-08
1.00691e-07
1.75244e-06
8.77282e-05
2.12059e-07
1.18927e-06
4.92413e-07
0.000426347
6.13626e-06
6.89816e-06
7.8879e-08
1.0234e-05
0.000754472
3.31064e-06
0.000394146
76.0233
1.74633e-06
3.11851e-06
7.60617e-06
0.000363983
1.21544e-05
0.000318906
9.62039e-07
3.69627e-06
7.48681e-05
1.42821e-05
2.29878e-07
1.10803e-07
2.27498e-06
1.3691e-06
6.971e-06
1.22865e-07
1.15627e-05
1.0021e-06
3.6121e-06
4.79003e-06
3.53257e-06
2.19565e-07
3.41753e-06
1.82247e-06
9.51565e-05
3.84316e-06
3.86415e-06
3.45375e-05
4.06193e-06
4.48263e-08
8.62446e-09
2.50949e-05
2.14355e-06
4.82724e-06
2.87703e-07
0.000548046
0.000648665
1.72426e-07
0.000257467
5.4868e-06
3.87753e-05
0.000575727
0.000473934
2.58463e-06
0.000580287
8.22192e-06
1.3631e-06
28.8925
3.67424e-06
4.68576e-06
3.64124e-07
8.44588e-07
0.000654181
2.99249e-07
3.28952e-07
4.84178e-06
2.21722e-07
0.00776993
1.10876e-05
7.53941e-07
1.22832e-05
0.000532047
4.58918e-05
9.93784e-07
4.86756e-06
2.90823e-06
0.000593003
0.00109532
4.70844e-06
4.773e-06
1.00822e-05
9.19916e-07
0.000576066
9.93617e-06
5.37587e-05
3.70079e-06
4.39424e-06
0.000696006
0.000705332
0.000551792
1.16339e-05
2.5108e-06
1.06793e-07
6.65001e-06
1.35783e-07
6.58389e-06
0.000347655
2.90796e-06
1.66254e-06
5.13743e-06
3.9842e-06
2.71885e-06
7.11221e-06
2.81361e-07
6.1491e-06
1.99293e-07
0.029179
0.000589943
4.40028e-06
8.17151e-06
0.00111619
3.50377e-06
0.000524815
3.19732e-06
0.000657746
3.1642e-06
7.65099e-07
1.48153e-08
3.94708e-06
1.37737e-08
2.67533e-06
1.08109e-08
0.00324464
3.13094e-06
3.39866e-06
3.93267e-07
1.71837e-06
1.00604e-05
1.17367e-07
0.000231527
1.73905e-06
1.96112e-08
1.10805e-05
0.000655892
4.78771e-05
2.98706e-07
4.73332e-06
3.42723e-06
0.022963
7.63547e-05
1.26507e-06
9.9771e-06
0.000804694
3.99806e-06
0.000216533
1.84237e-06
2.15034e-07
1.37971e-05
6.06553e-05
1.03338e-07
7.80757e-06
1.89394e-12
1.2124e-12
2.74545e-07
0.0169727
8.01384e-05
3.67948e-06
0.0302603
5.64865e-06
3.44925e-06
3.78464e-06
0.000615213
1.64555e-07
2.32278e-06
4.33882e-06
2.75591e-07
0.000901705
0.00274398
1.0856e-05
4.92881e-06
4.8453e-09
7.29165e-06
2.75011e-07
0.00202104
5.28284e-06
7.48809e-05
0.0287135
4.85194e-08
8.57908e-09
9.25231e-05
2.71002e-06
0.000372095
7.21271e-08
3.16276e-06
9.69713e-06
9.91023e-05
7.15168e-06
0.00980444
0.000608741
7.04258e-06
2.97195e-05
4.29654e-07
9.29287e-06
4.21412e-05
4.97128e-06
0.000158627
1.03502e-05
0.000385662
4.35423e-05
3.9955e-06
1.37465e-08
5.2363e-11
1.40587e-06
3.30373e-06
2.42839e-06
0.000419456
5.5396e-07
6.80022e-06
9.98971e-05
3.85655e-06
1.15172e-08
1.74884e-05
1.1934e-10
3.58052e-08
1.19511e-07
5.42159e-06
0.0020692
9.81141e-06
6.1618e-07
0.000744661
0.000129845
2.27757e-07
6.6097e-06
2.82445e-09
4.59781e-06
0.000798443
1.0902e-05
1.294e-06
6.70707e-06
0.000822933
6.18721e-06
2.07301e-07
0.000187631
7.39273e-07
1.02938e-05
5.78932e-08
2.61121e-06
0.000310028
1.92755e-08
6.04206e-06
1.97769e-06
4.86115e-06
0.959815
6.3492e-05
2.17267e-07
0.00044235
6.55606e-05
8.32652e-07
9.59027e-07
0.000136782
7.06268e-06
0.00155637
6.97268e-08
0.000770207
8.88172e-06
0.000370551
1.70377e-05
3.29345e-06
1.05581e-05
6.6737e-05
7.4444e-06
4.2521e-05
1.83682e-06
0.000361775
9.71936e-06
0.000466801
1.93749e-08
5.02077e-06
0.0370877
8.06655e-10
2.16882e-08
1.87772e-07
0.00274249
4.6701e-05
9.27015e-08
1.38737e-05
7.66577e-06
8.48043e-09
1.89384e-06
0.000138762
3.29456e-06
1.88058e-08
0.000107614
5.31529e-08
0.000622486
1.43584e-07
7.12186e-05
8.53701e-06
5.41848e-06
4.75933e-06
1.03943e-06
3.34208e-06
0.000868901
2.47559e-06
0.000554651
0.000531874
2.42058e-06
1.15206e-06
5.48512e-05
3.82395e-06
0.00136662
2.16514e-07
1.1293e-05
1.80569e-06
3.14466e-07
2.26307e-06
5.52467e-06
1.03464e-05
1.55479e-10
6.29044e-07
1.86102e-05
4.81422e-08
0.000138757
2.92919e-05
7.53465e-07
4.11732e-06
0.000138855
2.34162e-06
6.30553e-05
4.18447e-07
0.000585777
7.21819e-06
7.71261e-06
2.62745e-06
0.000230055
3.27951e-09
1.96697e-06
0.000566511
7.6001e-06
0.000745238
7.85478e-06
2.33818e-07
3.12771e-07
0.00152858
2.35208e-06
5.89189e-05
4.12492e-06
2.3027e-06
1.75171e-06
3.51136e-06
5.69451e-07
0.00065024
31.4529
3.96543e-06
1.20806e-05
9.01275e-06
7.955e-06
1.04648e-05
2.84804e-07
3.34629e-06
4.99132e-05
0.00011756
1.66276e-06
0.000741355
5.22969e-07
0.00918751
1.20239e-06
9.41094e-06
0.000143153
0.000620246
0.000599837
0.394709
5.96857e-08
5.57608e-05
3.80919e-05
3.76944e-07
2.37152e-08
4.96177e-06
1.90449e-06
0.000553896
1.33852e-06
6.35456e-06
8.39488e-06
0.000793996
2.80496e-05
0.0019405
8.30217e-07
7.10578e-10
5.57286e-05
5.53332e-06
5.36933e-07
2.33175e-06
1.54186e-05
1.7762e-08
1.01388e-06
4.87727e-09
7.26875e-05
0.000671746
5.95684e-09
3.46186e-06
1.33818e-06
0.000173263
8.48444e-10
1.57538e-05
7.36101e-07
7.21156e-06
2.46464e-07
1.62362e-05
2.3506e-08
1.47978e-06
1.0277e-05
0.000214988
3.1372e-06
0.000141148
0.000503623
0.000571676
0.00072411
8.69648e-07
0.000136401
2.73948e-06
5.2216e-05
3.10886e-08
1.25663e-06
8.08417e-08
1.00051e-05
1.21842e-06
0.00181442
0.000574149
0.000364021
5.00486e-10
5.35406e-06
0.00455075
1.94355e-05
1.69451e-06
1.77781e-06
5.51346e-06
0.000970082
3.0577e-07
1.74849e-08
1.69933e-07
2.1275e-06
0.000746393
8.22801e-06
0.000267264
0.000114844
8.65298e-08
8.58113e-07
4.44698e-06
0.000654193
3.00637e-07
1.00997e-06
1.97713e-06
2.01532e-06
0.000193057
7.27584e-10
2.71546e-06
1.82206e-07
8.05078e-06
1.20621e-06
0.000543385
3.25076e-07
5.18959e-06
9.35315e-07
2.89746e-06
0.00107525
1.06301e-06
2.90741e-06
0.000701595
2.55482e-07
0.000619636
8.84479e-06
4.49805e-07
1.76152e-06
4.88932e-06
1.0633e-06
7.66774e-06
0.000409155
2.3527e-07
1.88845e-06
5.59446e-06
3.00627e-06
3.07124e-06
0.000298081
4.28844e-09
1.94575e-06
0.000122688
0.000648761
3.43843e-07
0.00167795
5.21228e-06
4.8718e-06
0.000132742
8.13716e-06
0.00125953
9.54012e-07
6.94968e-06
3.34347e-06
7.04111e-06
3.70928e-07
0.000460772
1.64431e-05
2.18753e-06
9.79592e-05
1.31946e-05
1.01622e-07
1.92822e-08
2.33478e-08
2.58248e-08
3.7833e-06
4.95201e-07
1.90288e-06
3.78684e-05
5.33969e-06
1.00121e-06
1.92808e-06
7.93359e-06
2.31891e-10
0.000558637
0.0136659
1.18588e-08
7.90271e-05
1.94425e-05
3.61947e-08
2.41496e-06
0.000722196
6.748e-06
2.95371e-06
0.00056737
1.54856e-05
2.18454e-06
8.63571e-06
4.513e-07
4.33558e-06
2.06305e-06
2.69434e-06
5.96578e-06
3.04461e-07
4.65587e-07
0.000310806
1.75112e-07
1.84767e-06
4.46251e-07
4.66843e-05
1.15327e-05
9.90457e-05
0.0100428
8.29314e-06
3.11206e-06
4.48556e-06
0.00638759
5.29782e-05
0.000308607
3.30017e-06
0.000420014
3.77734e-06
1.21289e-09
1.05346e-05
3.37868e-06
5.68874e-05
9.97341e-08
0.00116431
3.1716e-06
2.08197e-07
8.20878e-09
5.88193e-05
0.000211816
1.03786e-06
0.000187441
1.95015e-08
2.0512e-06
2.61543e-05
1.97474e-05
4.39547e-06
5.32722e-05
1.24827e-06
2.01342e-06
8.81891e-05
1.62271e-06
1.49016e-06
5.59438e-06
0.0001844
2.58862e-09
2.18293e-06
4.67865e-06
0.000661881
2.36724e-05
4.28815e-06
1.57446e-05
4.79778e-06
2.0536e-06
9.16795e-06
4.41489e-06
1.92761e-06
1.95085e-06
2.28348e-07
8.87301e-07
2.34998e-06
6.8253e-06
5.59065e-09
1.71763e-09
0.00186893
7.27581e-08
9.33982e-06
0.000383427
7.29316e-08
7.57982e-06
0.000111785
0.000119973
3.95891e-06
1.34357e-06
1.32235e-06
3.70045e-06
5.44488e-06
4.51563e-05
0.000297054
4.1862e-09
2.70615e-05
0.000153147
1.66234e-06
1.95411e-07
6.82501e-08
1.65235e-07
0.0452352
3.74417e-06
8.82412e-06
3.72971e-06
0.00667903
0.000356651
6.18875e-07
6.2031e-07
0.000525426
0.0328707
1.3117e-07
1.07997e-08
4.559e-06
3.99546e-09
5.04689e-08
0.000609683
1.86195e-07
1.1887e-07
0.000614201
3.1955e-06
8.82344e-06
0.0017958
0.000500965
5.05254e-08
0.000166476
5.29791e-06
5.32049e-07
3.29243e-06
1.01067e-06
6.8105e-06
9.77954e-08
0.000184984
2.26636e-07
2.80625e-05
0.000528294
5.23138e-06
3.8428e-07
0.000341724
4.99381e-07
6.23945e-06
1.30983e-05
0.000348508
4.91322e-05
1.33237e-05
0.000155851
8.41477e-06
6.65366e-07
1.02242e-05
1.05371e-07
1.4263e-06
2.22507e-06
3.54344e-06
0.000359054
1.37379e-05
4.18593e-06
2.31833e-07
0.000559995
0.000569125
5.56677e-08
8.06508e-08
0.000534073
2.34488e-05
4.76989e-08
4.18677e-05
1.8099e-06
0.000175275
2.80094e-06
1.28463e-06
4.65243e-06
4.30249e-06
3.30235e-06
8.00657e-08
35.3736
1.63649e-06
0.000724434
3.48724e-06
9.49243e-06
0.000728971
6.29263e-06
1.11983e-07
2.7157e-05
9.42019e-07
5.33993e-05
1.37166e-07
0.000658384
2.4362e-08
6.21439e-06
9.34994e-06
4.91663e-06
2.59531e-07
3.0092e-06
1.32401e-06
0.00034377
1.88828e-06
5.69629e-09
3.48476e-06
7.01659e-07
3.27326e-06
0.000340718
0.000656049
6.87266e-06
0.000989672
0.000190217
0.00492948
1.27216e-05
1.0929e-06
3.1378e-06
0.000570728
3.04974e-06
1.56554e-10
2.33699e-06
4.03547e-06
8.10955e-07
6.04362e-09
5.41139e-06
5.01039e-06
6.76566e-06
2.21655e-06
0.000275507
2.22503e-07
1.32697e-08
5.51792e-06
0.000205258
2.52816e-06
7.63893e-09
0.000211194
9.15961e-07
1.01357e-05
1.55033e-07
2.63054e-07
3.72607e-05
1.06453e-06
1.89211e-07
8.83025e-07
1.10731e-05
0.000800073
4.81409e-06
0.000173499
0.000157226
1.38203e-05
3.65406e-06
3.6098e-06
5.54986e-11
5.26745e-08
4.54621e-06
7.63672e-06
3.43249e-09
1.66024e-08
5.97024e-10
5.30057e-06
0.000478807
0.000199717
0.000718121
8.62036e-06
3.18859e-06
8.93379e-08
0.000411233
4.23544e-06
0.000728968
1.30756e-06
2.18662e-06
2.06915e-07
1.45013e-06
7.43567e-09
1.32837e-05
4.55353e-06
2.67703e-06
2.01028e-06
3.20823e-06
2.28024e-07
5.40565e-05
0.00058614
1.70686e-06
4.72962e-07
5.95762e-06
3.19464e-06
9.73607e-07
1.26972e-08
1.22137e-06
9.36281e-07
1.90231e-06
67.6021
3.97027e-06
3.62506e-06
6.9213e-06
0.000566367
0.000675132
0.00049048
4.40329e-06
7.2255e-07
2.68868e-05
0.000683262
1.87403e-06
5.01399e-06
2.09722e-07
7.30663e-06
2.78494e-08
3.22434e-07
1.31127e-05
9.12758e-08
6.18717e-06
5.35663e-08
0.000153031
4.08344e-06
1.64526e-05
4.31688e-06
3.76888e-06
4.05592e-06
4.81136e-06
0.000391146
4.40748e-06
3.84347e-05
3.76181e-06
0.000722541
0.000561509
8.12936e-08
1.54167e-08
2.68949e-06
6.75363e-09
4.18954e-07
5.1016e-06
1.1695e-05
0.000734463
1.96545e-06
0.00073474
6.32094e-08
6.74838e-06
9.69678e-07
7.77776e-06
8.26442e-06
0.232934
8.1416e-05
5.43302e-07
1.83415e-05
1.08542e-05
3.25352e-07
0.000157063
1.70796e-06
2.32306e-06
5.17528e-06
2.25548e-09
0.0258082
3.47975e-06
0.00156096
7.57826e-07
2.12103e-07
5.34968e-08
1.02313e-05
4.74152e-06
1.36892e-05
3.32339e-07
0.000597445
0.000181773
3.13483e-11
3.47521e-08
7.37335e-06
3.68034e-06
1.05708e-06
9.01665e-05
2.60362e-06
1.71765e-05
7.35788e-06
5.70927e-05
0.000843817
8.22481e-05
3.76273e-06
3.34957e-07
2.42419e-06
2.25637e-06
1.24155e-05
2.93705e-06
1.89117e-05
0.000100913
1.00136e-05
8.51995e-05
1.37782e-05
4.02229e-08
9.52966e-08
4.88254e-05
1.0803e-05
6.83066e-05
2.2272e-08
0.000739941
0.000547615
1.86417e-06
1.1351e-05
8.20288e-08
8.63301e-07
1.59441e-08
2.9286e-05
4.88044e-06
4.39142e-07
3.0299e-06
8.18887e-06
4.05874e-06
0.000647347
1.06891e-05
3.43505e-05
0.000766674
1.91063e-06
2.44761e-07
3.47408e-06
8.80636e-06
2.21069e-06
1.89587e-05
1.66817e-06
4.35829e-06
8.54917e-07
3.00234e-07
6.51131e-07
3.9035e-11
3.99633e-07
3.00435e-07
0.000552543
4.20627e-08
2.69974e-06
2.4704e-06
3.80247e-06
4.70191e-07
1.65505e-07
9.50928e-09
8.89596e-09
3.12555e-06
0.000646043
3.28579e-08
1.59038e-06
0.000996122
1.76744e-06
8.00944e-06
8.48066e-07
1.04828e-05
0.000488284
1.31981e-08
0.00528831
0.000759738
3.03283e-06
7.33927e-10
8.69387
1.4101e-06
5.25638e-06
8.27732e-06
0.000336796
4.17024e-06
1.81493e-06
1.86043e-05
1.11879e-05
3.97179e-06
3.52607e-07
1.23154e-05
0.0017384
0.000127701
3.7375e-06
0.000453163
3.32996e-05
4.30777e-09
5.1019e-06
0.000206737
0.000834662
0.000891296
1.79401e-06
2.34467e-06
0.00018185
2.8042e-06
2.21239e-06
3.30293e-06
3.15756e-05
0.000512181
2.89862e-07
7.90118e-07
2.28076e-06
3.1537e-06
0.000596456
3.04049e-06
1.77342e-06
1.04972e-05
0.000233576
1.37668e-05
4.37989e-06
0.00130872
0.00696446
0.000600378
0.00240525
4.24456e-08
1.90685e-05
5.55554e-05
4.06724e-05
6.92709e-06
1.03685e-05
1.98275e-06
2.68659e-06
0.000606722
3.2648e-09
1.63175e-05
0.000659309
1.9066e-06
0.00220427
0.000599274
0.000432129
42.0649
6.25025e-07
2.01186e-06
9.61319e-06
7.44461e-06
0.000161916
4.98184e-05
5.8431e-08
1.11261e-08
5.67377e-06
7.33243e-06
4.38531e-06
8.46656e-06
4.60258e-06
0.000754539
1.00065e-06
4.01127e-06
7.69134e-06
1.79653e-08
5.3409e-06
0.000797904
1.76618e-06
4.44103e-07
0.000191214
3.03054e-05
2.59247e-06
2.06559e-06
4.46882e-06
5.63807e-06
3.43599e-06
3.65671e-07
1.38984e-05
2.90246e-07
0.000356086
0.21624
0.00144772
1.40808e-06
7.37312e-07
5.9731e-07
6.46243e-05
5.03844e-07
1.10558e-05
6.5972e-06
1.3731e-05
5.62147e-06
0.00021336
0.000554335
3.86901e-06
3.46335e-06
4.75461e-07
4.53665e-10
0.000285556
8.66606e-06
5.3689e-06
16.8783
3.00435e-06
2.72117e-06
3.01276e-06
0.001634
3.93919e-06
5.20927e-06
0.00055708
1.47987e-06
8.83416e-05
1.01495e-06
3.40689e-05
2.14214e-05
0.0017809
8.8785e-06
1.32644e-05
2.91946e-06
1.03757e-06
0.000586339
1.28995e-06
1.60161e-06
2.21749e-06
4.35179e-05
5.72688e-06
0.000933
4.47861e-05
0.000355298
9.29044e-06
1.87161e-06
2.82403e-06
8.34737e-06
8.58644e-05
7.26201e-08
2.1881e-06
0.0179774
0.000543144
2.18518e-07
0.000103282
5.40484e-08
1.16799e-05
1.48296e-06
0.000229588
9.72831e-07
5.94325e-08
0.000945479
0.00080568
1.30501e-06
6.46628e-06
0.00114783
1.94084e-08
1.57904e-05
7.13058e-06
5.05661e-06
1.41585e-05
5.05832e-08
1.83588e-06
8.50022e-06
0.000313211
4.18446e-06
3.86921e-05
0.000728544
3.60294e-05
1.07362e-09
6.87434e-06
2.41791e-06
1.18315e-05
0.0065118
1.95342e-05
0.000251602
0.0115937
9.66244e-06
4.29313e-06
2.10031e-06
0.00161264
2.29761e-07
2.57485e-06
2.8042e-06
8.3273e-06
0.00119222
5.53698e-08
7.52495e-06
1.15755e-06
7.46437e-05
0.000346131
4.88183e-06
0.000626787
8.09766e-08
2.03316e-06
0.000262011
0.000339381
1.453e-05
0.0196886
4.79779e-08
5.79756e-09
2.49626e-07
8.308e-05
1.22276e-05
2.12201e-07
1.02885e-05
1.45148e-06
0.0158355
3.68238e-07
1.05389e-07
2.0492e-06
4.38587e-08
0.0002007
0.000183731
2.18648e-06
0.000431473
4.11877e-06
4.41979e-06
0.000149558
5.17858e-06
5.43415e-05
8.2986e-06
1.11976e-05
1.7758e-06
9.31552e-06
1.22786e-08
8.92374e-05
3.11843e-06
6.11694e-08
3.68182e-05
4.67712e-06
1.49176e-06
1.70802e-06
3.18708e-08
0.000929811
6.0444e-07
0.0012173
3.50268e-06
2.59194e-06
5.40871e-06
0.000206953
0.000556204
1.05085e-05
0.000474146
0.000586029
1.07482e-05
1.14463e-05
19.2159
5.86929e-05
4.41221e-09
4.46894e-06
0.000468423
3.62349e-05
3.46226e-06
0.00121217
0.00042079
0.000360845
0.000797875
9.40251e-08
1.14206e-08
4.74444e-08
5.33117e-06
5.74158e-08
3.70001e-05
0.000691795
2.90748e-07
0.000705979
1.7542e-07
5.64629e-08
1.07198e-06
0.000559875
0.000383717
8.44159e-06
3.57016e-06
0.000601855
3.14986e-06
1.4125e-07
4.66425e-06
9.31207e-08
0.0325942
2.1303e-06
0.000312639
8.81319e-05
9.97559e-06
0.000128841
1.09656e-05
4.12151e-07
4.25711e-06
2.74281
5.93306e-06
0.000326453
6.24179e-06
3.60043e-07
2.42331e-06
0.00263177
0.00200563
4.38236e-08
4.39111e-06
0.000594678
1.31751e-06
2.98648e-05
7.14566e-05
0.00048059
5.08112e-05
5.10099e-06
2.2397e-08
0.000558643
0.00018008
0.000787175
3.30836e-06
0.00177997
5.85127e-06
1.48487e-06
1.05494e-09
2.25696e-06
5.55761e-05
0.000673917
1.39875e-05
0.000441832
3.02156e-06
3.69684e-06
2.43342e-06
9.56502e-05
3.10511e-06
1.26996e-06
4.6481e-06
8.42553e-06
3.14304e-07
0.000647634
1.01829e-06
2.67762e-06
7.80522e-05
2.27488e-06
1.13076e-05
0.000262067
3.0193e-05
1.21401e-05
1.48794e-06
4.04017e-06
6.15242e-06
6.30788e-07
8.02694e-08
3.23287e-06
0.0148702
5.63567e-08
6.97819e-08
1.13471e-05
1.80664e-06
6.03244e-06
8.38825e-06
0.000488813
8.62368e-05
5.37495e-06
3.02345e-07
2.25758e-08
0.0107984
4.50724e-06
1.82218e-06
4.4642e-06
0.000644908
1.66633e-06
0.000747342
0.000669302
1.56257e-08
0.000680131
0.000267315
4.06857e-07
2.98352e-06
0.000131182
7.48608e-06
2.54306e-06
1.59193e-08
1.86259e-08
4.3219e-09
1.15987e-08
7.0624e-09
3.46842e-09
2.27089e-08
1.53169e-08
1.85042e-08
1.09187e-05
5.55402e-05
3.72138e-07
5.07308e-08
0.000608389
4.16717e-07
27.439
8.31605e-07
6.24264e-08
6.01721e-06
9.98105e-09
0.000661552
4.45985e-07
7.49919e-06
7.31685e-07
9.94979e-06
7.84861e-06
1.58177e-07
4.07618e-05
4.65909e-06
9.12067e-06
1.86202e-06
5.77681e-06
5.141e-05
7.92444e-06
9.62523e-06
2.79231e-09
4.26393e-07
4.15803e-06
0.000109254
6.36529e-06
9.34729e-06
0.000942209
2.42512e-06
3.23507e-06
2.04966e-06
1.26324e-08
1.63125e-07
2.02464e-06
6.49708e-06
1.09989e-06
4.26285e-07
0.000481077
8.39405e-08
0.00437244
6.29007e-06
8.92354e-05
0.000191958
2.49923e-06
0.00400113
3.62166e-05
4.63186e-06
4.30577e-09
3.24979e-05
2.01763e-07
0.000554213
0.000970113
2.42098e-06
3.82437e-06
2.17146e-06
1.31265e-06
0.00342916
7.60752e-06
3.36549e-06
5.1726e-06
0.000150711
5.90718e-06
6.92458e-08
6.77618e-05
7.09747e-07
3.05059e-06
8.83818e-06
9.75818e-08
1.95996e-05
3.13642e-06
3.49302e-06
1.95242e-05
1.10111e-05
2.22641e-06
0.000486694
5.85761e-06
0.000842919
0.00379093
0.000655321
0.000755872
5.93585e-06
2.42844e-08
7.64321e-06
0.000379443
1.15545e-06
1.04559e-06
3.19446e-06
3.2156e-06
0.000126213
8.51215e-09
7.71838e-08
7.33304e-06
0.000589617
9.82572e-05
1.86841e-06
0.000542535
2.1258
9.97939e-07
4.0336e-05
0.000320001
0.000194611
0.000526948
6.35129e-08
0.00363445
5.16002e-06
3.96925e-06
0.000598141
0.00163326
1.65386e-06
1.26174e-06
2.07249e-06
9.67213e-13
7.58267e-06
1.46818e-05
1.26875e-07
9.59246e-07
4.19522e-09
0.000166655
2.62532e-07
5.18459e-06
3.43445e-05
1.91824e-06
2.02943e-06
1.2858e-06
8.03544e-06
0.0006633
9.61131e-06
2.37269e-07
6.30171e-06
1.87123e-06
1.11649e-05
2.19306e-05
1.69687e-06
0.000641329
1.09507e-06
6.28908e-06
1.97744e-06
4.77027e-07
2.87026e-07
2.30155e-05
2.85535e-06
0.000584811
1.47927
2.2016e-06
0.000296005
3.0504e-06
1.12307e-05
1.39632e-06
6.41422e-07
5.07704e-06
1.1977e-06
0.000289728
3.96644e-06
0.000106779
5.54217e-06
1.14522e-05
6.2033e-06
5.22469e-06
0.000824061
2.50343e-06
4.48822e-06
1.8532e-07
4.61289e-07
5.16787e-05
3.06111e-08
1.88371e-06
4.23688e-07
1.09219e-05
1.05396e-05
2.52153e-06
0.00015575
9.63373e-06
3.17888e-06
9.36083e-05
0.00153719
4.46732e-06
9.21234e-06
7.58414e-05
4.26443e-05
6.66289e-05
0.000812986
0.000664663
0.00038499
1.28592e-08
7.34235e-06
1.42016e-12
0.000743943
3.10529e-07
5.54189e-06
9.12581e-06
3.35052e-05
1.38254e-05
0.000218898
4.73795e-06
8.52455e-06
0.000142962
1.72152e-05
0.000652693
1.34965e-05
0.000149706
0.00054005
5.83784e-07
4.20489e-06
1.91191e-06
3.68296e-05
1.92753e-07
2.32567e-07
1.21217e-06
1.62581e-06
6.92112e-06
1.50145e-05
5.41842e-07
5.92628e-07
3.81842e-06
7.65959e-06
2.83517e-08
5.70183e-08
3.44449e-06
4.38134e-06
0.000230501
3.03243e-05
1.42659e-05
1.11718e-06
0.00037531
0.00021383
8.49274e-06
0.000544581
1.00267e-05
5.88544e-06
0.000647501
0.00145237
0.0619797
1.64784e-06
6.77418e-05
0.000251947
6.49069e-06
0.00037309
0.000511835
5.40228e-06
4.03454e-07
7.63326e-07
1.16534e-06
2.87629e-08
6.64825e-06
4.78418e-08
1.57787e-07
0.00268885
0.00191014
3.76599e-06
0.000798911
7.66841e-06
2.39929e-06
0.000103136
2.14936e-06
1.79835e-05
0.0013421
6.82813e-06
9.16066e-06
1.42705e-06
1.66797e-06
0.0199674
8.79242e-06
0.000122599
1.13698e-05
3.86135e-06
3.37304e-07
1.28828e-07
7.28967e-06
0.000583364
1.38909e-06
7.26095e-06
0.613496
2.99392e-09
0.000241369
2.43322e-06
0.000349729
1.94214e-06
0.000136822
2.56216e-05
6.05658e-06
1.34511e-06
5.83485e-06
4.11312e-06
0.000695705
1.56257e-06
1.33439e-06
1.43103e-05
5.06932e-06
0.00014115
3.30744e-06
5.39273e-06
1.33295e-07
1.08398e-07
0.000874304
0.000575648
1.25238e-05
7.146e-06
7.26613e-06
6.2114e-06
8.59406e-06
1.84177e-06
0.000318333
7.33573e-08
4.75923e-06
0.000409108
7.28504e-06
0.0117496
9.73856e-06
6.1629e-06
1.31716e-08
0.00129898
5.52008e-06
1.60514e-06
1.22727e-06
2.66191e-08
1.07625e-05
2.04013e-06
7.57744e-06
1.33505e-05
8.94785e-07
1.35559e-05
4.71536e-07
1.25945e-06
2.42625e-06
1.19532e-06
1.34986e-06
5.3477e-06
6.38921e-07
8.09516e-08
1.02168e-07
1.00101e-05
1.54408e-06
5.30988e-07
0.000291462
2.11927e-06
1.97381e-06
0.00209991
2.4862e-05
1.09356e-06
0.000877595
0.00174648
1.07928e-05
3.14078e-06
0.000153262
0.00129664
1.6896e-06
0.000119129
0.00182457
1.17731e-05
0.00204407
8.82193e-09
4.18401e-06
1.05707e-08
1.17205e-07
7.36177e-06
9.89013e-05
1.97409e-07
6.21244e-06
1.34058e-05
8.25969e-05
5.67865e-06
2.50764e-08
3.68673e-06
4.08532e-06
3.06896e-06
2.83632e-09
5.72222e-06
2.1367e-06
1.01868e-07
2.75297e-06
8.88073e-08
0.000402832
0.000696449
1.25645e-06
6.91691e-08
7.06627e-05
2.41034e-05
0.000454738
7.0612e-05
7.04726e-06
1.23272e-05
1.57121e-06
8.7341e-05
3.46223e-07
4.07538e-05
4.17941e-06
3.32827e-09
2.24855e-06
3.08386e-06
3.24687e-07
3.51299e-06
2.51422e-07
8.87077e-06
0.00102126
4.13988e-06
2.72833e-06
1.66178e-06
1.60366e-05
4.16902e-06
6.62389e-06
0.0171108
5.14114e-06
4.0382e-06
1.08951e-07
2.21839e-06
1.44723e-06
7.50761e-05
3.8758e-06
0.00123991
0.000849204
0.0010381
7.08464e-08
0.000186988
3.80829e-08
2.58047e-08
1.02189e-05
4.24462e-08
2.96035e-06
5.28302e-06
2.199e-06
4.10823e-06
5.02333e-06
1.32081e-07
3.89329e-06
7.49033e-08
0.00161716
1.64319e-06
7.44587e-06
5.45786e-08
0.000149483
6.16665e-06
2.33913e-06
0.00113773
0.00221441
1.18708e-09
0.00124529
7.52226e-08
2.36941e-06
1.28712e-06
5.39423e-06
3.82318e-06
2.88225e-06
2.61957e-06
0.000635008
1.92233e-06
5.25867e-06
2.04374e-05
5.32109e-06
6.75501e-08
3.79435e-06
4.3595e-06
6.20983e-06
0.00086994
9.12675e-06
2.15268e-06
0.000257235
1.30674e-06
9.08901e-06
4.25486e-06
9.35238e-06
0.000169188
0.00075029
6.34063e-08
7.65156e-05
5.37425e-08
1.29781e-06
0.000117574
1.8727e-05
7.43648e-06
3.9461e-08
1.03335e-06
3.50095e-06
5.13236e-06
1.98124e-05
0.000134606
6.18942e-07
2.30077e-06
4.26363e-06
6.28858e-06
0.000147248
2.41768e-06
0.223343
3.52137e-05
4.82898e-08
1.02025e-05
4.11389e-07
1.93194e-09
3.3304e-06
1.48508e-08
6.83351e-07
0.000655818
2.64418e-06
1.40277e-05
0.00970793
5.10908e-07
0.00053669
0.00257291
0.000572065
7.25301e-06
4.74815e-06
4.3767e-06
3.28747e-07
0.000183794
1.0593e-07
6.205e-07
3.58788e-06
3.35318e-06
0.000112544
5.54014e-06
9.02662e-06
2.36537e-06
0.0011829
0.000549824
3.11926e-06
4.91062e-06
5.97003e-06
2.12373e-07
2.02004e-12
0.000148127
8.87643e-08
1.56866e-12
1.05122e-06
1.53144e-06
1.36394e-06
9.23681e-06
0.000145855
4.15221e-06
6.39386e-06
1.26803e-06
1.24762e-05
8.27723e-08
6.29847e-06
3.17929e-05
4.83852e-06
2.62669e-06
3.36043e-07
9.95813e-05
7.71991e-08
6.05886e-08
2.36844e-07
0.000241973
0.000136935
1.26467e-05
5.02972e-05
0.000740213
9.24215e-06
1.66233e-08
0.000648548
5.52707e-07
3.47731e-07
4.60121e-08
2.6426e-07
0.000152136
0.000232211
8.3244e-05
1.10895e-05
1.39054e-06
5.77811e-07
4.26741e-06
3.80678e-06
8.14741e-08
4.86404e-05
1.63012e-05
0.00043563
0.000779001
4.79731e-06
8.61581e-07
2.73446e-09
0.000342557
5.03998e-06
9.83559e-06
4.49344e-08
2.36316e-07
9.61395e-06
0.000473591
0.000517732
3.90982e-06
6.32873e-06
0.00015624
2.07372e-06
1.02242e-06
0.000974787
4.20502e-08
1.88188e-06
0.000578662
0.00162999
2.01465e-07
0.000663031
2.59252e-06
0.000404366
4.67579e-08
5.15704e-08
8.24198e-07
3.87451e-06
1.83108e-06
0.000873663
3.83831e-06
5.03729e-09
2.46057e-06
4.74941e-06
3.00984e-06
3.61386e-08
1.56866e-06
7.18783e-06
8.85777e-06
5.1464e-07
0.000224063
1.8139e-06
8.64474e-07
2.45398e-06
9.17302e-07
1.97717e-08
0.000728883
2.50012e-07
8.15808e-06
3.36639e-11
6.77709e-06
9.54982e-05
1.2947e-08
0.000640685
0.000593872
0.00200353
7.16721e-09
2.25481e-06
6.01834e-07
1.65695e-07
6.11119e-06
3.78068e-06
5.78645e-06