/*--------------------------------*- C++ -*----------------------------------*\
  =========                 |
  \\      /  F ield         | OpenFOAM: The Open Source CFD Toolbox
   \\    /   O peration     | Website:  https://openfoam.org
    \\  /    A nd           | Version:  8
     \\/     M anipulation  |
\*---------------------------------------------------------------------------*/
FoamFile
{
    version     2.0;
    format      ascii;
    class       volScalarField;
    location    "7e-05";
    object      epsilon;
}
// * * * * * * * * * * * * * * * * * * * * * * * * * * * * * * * * * * * * * //

dimensions      [0 2 -3 0 0 0 0];

internalField   nonuniform List<scalar> 
23640
(
7.61668e+08
8.94554e+09
4.28326e+07
4.6604e+09
5.23904e+09
3.31974e+10
3.27051e+09
2.50927e+09
2.66626e+10
1.2226e+11
6.33793e+09
1.05132e+10
5.37516e+08
4.50636e+09
1.44626e+11
3.20017e+10
3.39623e+08
4.26641e+10
1.60224e+10
3.09465e+10
9.04365e+09
1.89895e+08
9.24686e+09
2.73215e+10
3.72946e+09
4.88718e+09
4.6989e+10
2.96883e+10
1.62355e+08
1.42743e+09
3.52291e+08
1.56682e+09
9.11822e+09
1.99435e+10
3.34512e+10
1.52486e+11
3.41314e+08
2.39213e+08
8.46168e+08
1.16334e+10
1.45688e+10
2.39456e+10
4.15055e+09
6.52211e+08
4.01075e+09
7.57495e+10
4.53596e+08
1.01008e+10
1.17577e+11
2.49572e+09
2.86974e+08
3.20198e+10
1.98754e+11
2.58504e+08
4.57513e+09
1.81561e+11
2.93036e+10
8.21267e+09
1.45176e+09
8.2e+09
3.41954e+08
5.46598e+10
4.6072e+09
2.89826e+10
2.0873e+09
2.95294e+10
2.68999e+10
4.38288e+09
9.09085e+10
4.1757e+09
1.05873e+10
1.90733e+10
1.95354e+10
2.76567e+08
2.31337e+10
6.07821e+09
5.45193e+11
5.1702e+08
1.55158e+10
4.5317e+09
7.82683e+10
6.86453e+10
3.01427e+09
3.09065e+09
1.96824e+09
1.75553e+11
3.29344e+10
3.69088e+10
4.17966e+10
1.21299e+11
2.19641e+09
7.76068e+09
7.72589e+10
1.66881e+10
3.11397e+10
9.4024e+08
2.73973e+10
1.2844e+11
7.42398e+09
9.53493e+10
6.20916e+10
2.47743e+08
4.19489e+10
2.93186e+08
2.94566e+10
2.22345e+08
1.01451e+10
2.3691e+08
1.15043e+10
8.2822e+09
2.88253e+08
1.86611e+10
1.19347e+10
1.45565e+10
2.43416e+11
1.47922e+08
1.54221e+11
2.56569e+08
6.88759e+08
1.46028e+09
6.58315e+10
1.36901e+09
1.25971e+11
1.26752e+09
5.11011e+10
1.81697e+10
2.20547e+08
1.11971e+11
3.28264e+10
1.44588e+10
3.06535e+10
5.3774e+10
5.34949e+08
5.13128e+10
3.45803e+08
5.08402e+10
7.24145e+09
4.07386e+09
6.52338e+09
2.46295e+10
7.87589e+09
3.10896e+10
2.15655e+10
6.27928e+09
3.01124e+10
5.89694e+09
5.73152e+09
8.51031e+09
2.36382e+09
9.58184e+10
2.73526e+09
4.88725e+10
3.28408e+09
4.19081e+09
4.22171e+10
1.91702e+08
3.30137e+09
1.63706e+10
1.42225e+10
4.71206e+10
1.11753e+11
2.1448e+11
1.60914e+11
1.44726e+10
1.3134e+08
9.46623e+07
9.30197e+09
1.40213e+11
9.24576e+09
5.22347e+10
9.52544e+09
2.33785e+11
2.23528e+10
1.12649e+10
5.64478e+09
6.04606e+09
1.39192e+10
3.01205e+11
4.52466e+09
1.62356e+09
3.96199e+09
1.42183e+11
3.99073e+09
2.91978e+10
1.94638e+08
5.15459e+10
4.8824e+10
6.1509e+10
1.11602e+10
3.18918e+10
2.2055e+10
6.26363e+09
1.81933e+09
3.18156e+09
1.79449e+08
1.62975e+10
3.00894e+10
7.45847e+10
1.05098e+11
7.20304e+10
1.02438e+10
2.71209e+08
2.89875e+08
2.31918e+10
1.325e+10
1.61191e+09
1.14247e+11
9.28373e+09
1.92332e+11
8.24222e+09
4.93067e+09
4.47865e+09
9.17711e+08
1.66666e+09
6.34084e+10
8.48064e+09
1.20486e+10
3.06391e+10
9.83061e+09
2.59927e+08
9.58673e+08
6.41067e+09
1.01359e+10
1.11396e+10
2.39841e+10
1.12331e+10
6.79889e+09
1.39249e+09
3.09748e+08
2.20201e+09
7.70789e+08
1.8146e+08
2.56814e+10
4.91879e+09
1.60588e+10
6.62629e+10
1.00577e+10
8.73458e+09
2.41499e+09
1.15718e+11
6.50185e+10
1.48611e+11
1.48477e+10
2.0598e+10
4.53398e+09
1.97335e+08
1.69879e+09
1.82083e+11
4.24216e+09
2.34483e+10
7.53065e+09
6.18688e+09
4.48049e+08
5.8257e+09
1.39681e+09
1.13211e+10
1.49689e+08
1.88954e+08
8.62253e+09
9.5546e+09
4.62942e+09
3.0357e+08
5.50961e+10
1.07924e+10
2.01141e+08
4.10095e+09
4.66552e+10
7.23544e+09
1.39848e+09
3.56397e+10
6.09642e+10
1.01122e+08
1.02308e+11
9.8099e+09
1.17989e+11
1.87849e+10
2.00688e+08
1.42198e+09
2.78451e+10
1.09754e+10
1.91337e+10
2.35821e+08
5.76278e+10
5.85521e+09
1.43374e+10
5.93622e+10
6.89641e+09
1.05324e+11
7.89628e+09
5.94833e+09
1.52528e+09
2.65668e+08
8.24951e+09
1.00803e+10
6.64489e+09
3.99302e+09
1.22975e+10
2.96298e+08
6.04895e+09
6.68445e+08
1.43621e+11
2.79349e+10
1.1982e+09
7.36919e+09
7.7035e+09
9.33194e+07
5.59043e+10
6.98163e+10
4.58611e+09
2.23412e+10
1.53692e+08
9.06794e+10
5.5572e+09
1.60152e+10
1.062e+10
4.69096e+10
5.82827e+10
6.74419e+07
3.02933e+10
2.25283e+10
1.05558e+09
1.83018e+10
3.40232e+10
2.92606e+10
3.2999e+08
1.20728e+11
7.8009e+10
4.17393e+09
1.6921e+09
5.11162e+08
6.99462e+10
2.42238e+09
3.02346e+10
4.07911e+10
4.0597e+09
6.93551e+09
1.10042e+11
5.51122e+10
3.75032e+09
5.89365e+09
1.84917e+11
3.38103e+10
4.20632e+10
1.61089e+09
6.92081e+09
4.56895e+10
5.79776e+10
9.31199e+09
1.09984e+10
2.52383e+10
9.14774e+09
1.15733e+11
1.85402e+08
2.49482e+08
3.23497e+10
8.76038e+07
2.20241e+09
2.8812e+08
4.73568e+09
6.30938e+09
4.81318e+10
7.81916e+09
2.51188e+10
6.02211e+08
8.49299e+09
9.35815e+07
6.92723e+07
6.87846e+10
1.54959e+10
1.37876e+09
2.06137e+11
1.16245e+11
1.50521e+08
1.03331e+10
5.00571e+10
1.81792e+08
1.44577e+10
1.40069e+08
4.26538e+09
4.48933e+10
1.88255e+10
1.1621e+11
7.64544e+09
3.16592e+10
9.17074e+09
2.40434e+08
1.05895e+11
8.26764e+07
1.43839e+10
1.0774e+08
3.74672e+10
5.44771e+10
3.15721e+11
1.92252e+11
5.43565e+10
1.69731e+10
1.58927e+09
3.22877e+08
4.38821e+08
6.47655e+10
2.21644e+09
2.49649e+10
4.26227e+10
1.03149e+08
5.28971e+08
6.21046e+09
6.74148e+09
1.65641e+08
1.30911e+11
1.49463e+10
7.36114e+10
4.25767e+09
6.83671e+09
3.59289e+10
5.6457e+09
1.40716e+10
6.08376e+10
6.43108e+08
3.47423e+10
2.3305e+10
8.13848e+09
3.75183e+10
6.12329e+09
7.79713e+10
1.26541e+11
1.03173e+08
1.5219e+09
1.26843e+11
7.71812e+09
5.38598e+09
2.76887e+08
3.82915e+09
8.04271e+09
9.88626e+09
3.79337e+10
6.75573e+09
1.98148e+11
1.33337e+11
1.42384e+11
1.91091e+10
4.0775e+10
5.01729e+09
1.44534e+11
1.44472e+11
4.21075e+10
1.43069e+10
6.23957e+10
6.75182e+10
8.79774e+09
6.92571e+10
1.81411e+06
2.63138e+10
5.67281e+09
5.164e+10
7.13426e+10
2.89279e+08
5.92066e+09
5.41098e+10
1.18495e+10
9.24486e+10
3.33006e+10
1.38451e+10
1.34193e+10
1.20886e+07
1.41013e+11
1.47484e+09
1.44628e+11
2.12954e+11
8.076e+10
2.27341e+10
2.95771e+10
1.34237e+09
4.46061e+09
1.10501e+08
1.60761e+09
6.18403e+10
4.63793e+09
7.20831e+07
8.75968e+10
8.6023e+09
8.0405e+09
2.32022e+08
2.16805e+10
1.42328e+11
1.13099e+11
1.99333e+11
1.22946e+10
3.24127e+08
3.68159e+08
4.29988e+08
4.3762e+10
1.41633e+10
5.25195e+08
2.68247e+10
4.23981e+09
6.06656e+09
7.42608e+10
8.13497e+10
2.69381e+11
3.30918e+08
8.88279e+08
4.62219e+09
1.06411e+08
6.32157e+09
1.12412e+09
1.39956e+09
5.2545e+10
1.31362e+08
2.56173e+08
5.53202e+08
6.88841e+10
9.94027e+08
1.93914e+11
2.02158e+11
1.04062e+10
1.38757e+10
1.27958e+10
1.74504e+08
1.94135e+10
5.42865e+09
7.83132e+10
4.06804e+10
1.11358e+06
1.59832e+11
9.95431e+09
1.21815e+10
1.2039e+10
3.49206e+10
1.82261e+10
1.47221e+09
7.06435e+09
2.1886e+10
9.119e+10
8.99345e+10
2.28821e+11
6.62925e+08
1.87291e+11
5.3377e+10
1.98696e+08
4.76213e+10
8.3692e+09
1.17292e+09
4.41218e+09
5.9859e+09
2.85207e+08
4.12887e+09
1.54098e+11
2.96394e+10
2.41175e+09
2.45412e+09
1.2774e+11
4.99851e+09
2.23538e+11
2.71449e+08
1.42842e+11
8.27515e+08
4.98617e+09
1.51908e+11
7.24509e+09
5.31233e+09
6.12085e+09
7.80909e+09
6.75133e+09
7.38884e+10
2.20916e+10
9.716e+09
1.98125e+10
1.18908e+10
2.51335e+11
1.10797e+11
2.80654e+06
4.72259e+09
4.13307e+09
1.96204e+08
2.44069e+08
1.56708e+10
1.29436e+11
1.82938e+11
4.1432e+10
4.05481e+08
3.59886e+09
5.99357e+09
2.81271e+08
3.6055e+10
1.5541e+10
3.60744e+10
8.97524e+09
4.13274e+10
4.79511e+09
1.16912e+10
4.26774e+09
3.53739e+09
1.44785e+10
1.79951e+10
1.40017e+09
2.97028e+10
2.91081e+10
5.25487e+10
1.36381e+09
8.38488e+10
5.66283e+09
8.58233e+09
9.58321e+09
9.25068e+10
1.34643e+09
1.37315e+11
5.75391e+10
1.139e+09
1.29348e+10
1.24419e+10
1.33243e+09
2.87982e+09
9.93238e+09
2.10067e+09
3.82337e+10
5.55586e+10
2.27424e+11
7.41954e+09
2.7558e+08
1.52599e+09
1.35162e+10
1.24911e+10
2.69601e+10
4.25186e+09
5.60774e+09
3.22948e+10
7.9452e+09
9.91791e+09
1.0324e+09
1.42207e+11
9.59061e+07
7.36819e+09
1.82001e+09
1.62107e+09
1.68043e+08
4.71374e+09
9.18778e+08
9.06734e+09
3.22424e+08
1.36364e+11
1.87842e+10
1.23152e+11
8.05098e+09
4.99928e+08
1.36912e+11
6.10022e+09
1.01879e+10
5.39747e+10
2.32957e+08
9.64102e+09
9.37178e+10
1.84701e+09
3.5735e+10
2.17304e+09
2.997e+10
2.08627e+10
2.53311e+11
1.20573e+10
6.05899e+08
7.70057e+09
2.12449e+10
8.55803e+10
1.45679e+08
1.34326e+11
2.69464e+08
3.62131e+08
1.75936e+09
2.43723e+09
3.13842e+10
2.19429e+10
1.40869e+09
7.17958e+09
6.92284e+09
1.17379e+11
2.66444e+10
2.64339e+08
6.67365e+08
4.87058e+09
4.5052e+08
4.58484e+09
8.71488e+09
4.5354e+09
5.07222e+09
5.86687e+08
1.56389e+10
2.61143e+08
5.79157e+09
1.8348e+10
8.55931e+10
1.47631e+09
1.56412e+08
1.25669e+11
8.64073e+10
4.21925e+09
4.23898e+10
3.16148e+08
9.99251e+10
4.29611e+10
1.35169e+10
1.1547e+10
5.86329e+09
2.74568e+10
2.22661e+10
3.14762e+10
3.31431e+08
2.96701e+10
1.61748e+10
5.55895e+10
8.43139e+09
5.35658e+10
1.61857e+10
1.72961e+10
1.83888e+11
2.72781e+08
2.27565e+08
1.5078e+11
6.7264e+10
5.82294e+09
1.02211e+10
1.25479e+11
4.2121e+10
6.0897e+10
5.79022e+10
2.11914e+08
4.07691e+10
2.08197e+07
2.24347e+08
2.00671e+08
2.26408e+10
4.45006e+09
7.76797e+09
2.80876e+08
4.74449e+09
1.07567e+10
1.63502e+08
1.07598e+10
2.10316e+11
1.41323e+10
4.63384e+09
7.78191e+09
7.98451e+09
1.53273e+10
4.58965e+09
1.87924e+11
2.40016e+08
8.09343e+10
3.00623e+08
1.18087e+11
1.28284e+08
1.0004e+09
4.28273e+10
6.82199e+07
3.5113e+09
8.03205e+08
3.38823e+09
6.87474e+07
4.31018e+10
2.95321e+08
3.43785e+10
1.15543e+10
2.29379e+08
1.54497e+09
8.29815e+10
2.33695e+09
6.11642e+09
1.3021e+11
5.46016e+09
2.013e+10
2.28186e+10
3.94935e+10
1.01926e+11
1.74693e+10
8.61012e+10
1.23011e+10
3.67063e+10
5.88795e+08
7.6292e+09
3.61161e+09
3.65301e+10
1.51357e+11
4.69018e+10
1.23044e+09
1.15737e+08
1.54427e+11
1.29966e+11
1.54943e+10
5.41747e+10
1.51686e+08
3.20669e+10
1.20971e+10
1.28939e+08
1.61757e+11
2.90777e+10
1.06384e+09
3.35176e+08
1.34192e+10
5.71133e+09
4.90239e+09
5.07303e+08
1.25906e+10
1.36845e+10
4.50154e+10
4.15063e+09
2.75836e+08
6.44178e+10
1.83248e+10
6.07957e+09
1.5382e+10
5.46365e+09
9.44385e+08
2.05134e+11
2.65955e+10
5.35155e+09
7.24445e+09
1.44505e+11
3.18646e+10
3.14665e+09
3.60915e+11
1.44283e+11
1.29242e+10
4.22382e+09
4.40716e+11
2.10886e+11
2.9813e+10
1.19622e+11
9.07963e+09
3.1478e+10
3.26187e+08
5.51455e+10
8.17616e+10
8.02745e+08
4.24285e+10
3.24449e+08
2.7043e+10
1.20977e+10
4.03556e+09
2.43933e+10
4.06576e+10
1.03426e+08
6.35194e+08
2.70424e+10
1.85278e+10
7.06945e+09
1.92565e+10
1.51798e+08
2.44951e+08
4.20299e+09
8.32584e+08
1.23531e+10
5.10937e+09
1.57503e+09
4.99373e+08
1.27915e+11
1.73722e+09
1.77325e+10
2.60658e+06
7.6347e+09
5.86924e+10
1.52973e+10
7.57648e+10
5.53198e+10
6.26894e+08
1.30686e+09
2.38012e+10
5.10769e+10
5.09232e+08
7.2123e+09
2.66837e+08
3.28167e+09
1.34406e+11
1.37423e+11
8.75206e+09
4.95588e+09
7.24835e+09
1.55181e+08
1.85695e+08
6.24604e+10
2.23477e+11
3.2044e+08
1.03174e+08
4.39494e+10
1.32527e+09
2.75787e+10
3.89066e+08
1.9213e+11
3.00413e+10
4.58988e+09
3.11082e+10
5.75063e+09
2.29792e+09
1.94397e+08
4.93026e+10
1.32453e+10
2.0319e+11
3.79046e+10
4.17313e+10
1.63733e+11
8.34102e+09
3.4381e+08
2.33572e+10
1.07836e+10
1.37966e+11
4.12148e+09
3.77367e+08
6.79748e+10
9.0494e+07
5.76197e+10
1.00586e+10
1.19253e+10
1.81868e+08
1.4755e+11
1.1087e+08
1.25025e+11
4.78169e+10
4.47359e+10
9.55128e+08
4.8509e+10
7.21334e+09
1.2326e+10
4.95666e+09
5.8134e+10
3.35158e+10
1.48378e+09
1.46125e+10
8.84954e+07
1.55728e+11
1.83348e+08
3.97026e+09
2.09717e+11
2.9408e+10
2.75522e+10
1.7247e+10
3.17778e+07
2.22868e+10
4.41606e+09
6.54016e+10
1.57687e+11
1.07727e+09
7.11431e+09
4.4361e+09
2.31595e+11
6.85708e+07
1.16288e+11
4.00548e+10
4.90146e+09
4.10781e+10
6.85403e+09
7.36438e+10
1.63448e+08
3.16702e+08
1.38359e+10
6.48271e+09
2.06025e+08
1.49381e+11
4.58286e+09
1.34797e+09
1.05849e+10
6.41063e+08
6.09844e+09
2.21743e+08
5.27123e+10
1.96067e+09
1.32454e+10
1.47978e+09
1.32267e+10
9.01303e+09
6.24819e+09
1.72369e+10
2.29209e+09
4.92018e+09
8.43822e+09
5.86274e+08
6.30714e+09
4.47967e+09
1.40953e+11
5.72566e+08
1.83904e+10
1.40375e+11
1.88691e+10
5.57561e+09
2.27382e+11
5.91029e+09
1.18971e+10
6.85778e+09
5.05086e+09
1.80623e+10
2.77042e+08
6.64407e+08
1.13737e+10
1.62656e+10
1.23093e+09
5.8215e+09
4.18011e+09
1.89194e+10
8.8072e+09
3.05724e+09
1.54128e+10
1.45397e+09
9.83585e+09
9.75115e+10
3.04058e+10
1.37121e+09
3.67187e+10
3.26783e+10
1.20145e+11
5.64279e+10
9.99952e+10
1.81586e+08
1.72317e+11
2.16965e+11
1.94873e+08
1.1724e+09
2.79277e+08
3.11787e+09
2.4107e+10
4.36639e+10
3.78305e+09
3.41981e+09
2.3135e+10
3.66103e+11
1.49246e+10
2.91441e+09
8.61573e+07
1.4684e+10
3.48787e+10
3.63355e+08
6.53112e+09
8.01351e+09
1.70205e+11
5.63088e+09
2.08356e+10
4.11409e+10
3.42282e+09
2.39787e+10
3.29906e+08
1.6331e+09
5.87932e+08
1.0635e+11
1.97155e+09
5.20306e+08
1.36985e+09
6.52079e+09
3.35235e+11
3.19384e+09
3.34052e+08
8.67131e+10
4.76339e+10
6.20337e+10
3.12079e+09
5.29139e+10
7.06572e+09
8.69208e+09
4.03482e+09
1.88862e+10
1.74793e+10
1.28124e+09
3.546e+10
2.83183e+09
4.29793e+11
1.69415e+10
1.86041e+10
2.73784e+10
5.52934e+08
4.21756e+09
5.36731e+09
1.98738e+09
2.44839e+08
5.89923e+10
6.34432e+10
7.05204e+10
8.03281e+09
1.07562e+08
1.47141e+11
2.68897e+11
1.58818e+11
3.60316e+09
4.95462e+10
3.34994e+08
4.73191e+09
1.44888e+10
5.27838e+08
1.9092e+11
3.16791e+10
4.89721e+10
2.4007e+11
1.50184e+11
7.91426e+10
1.42655e+10
1.8703e+10
1.6201e+10
2.94383e+10
3.57632e+09
1.35598e+09
4.84853e+10
2.75182e+11
1.28614e+09
6.16441e+08
3.44438e+08
1.26374e+11
4.21783e+09
9.65219e+09
1.19073e+08
2.71181e+08
4.4235e+09
2.09815e+08
7.9256e+09
8.86864e+09
5.06939e+08
2.55457e+09
6.15799e+10
3.02028e+10
7.05981e+09
3.81236e+08
4.02736e+08
2.83268e+09
6.25113e+09
7.47799e+10
4.30846e+10
1.84439e+11
3.30929e+10
9.29377e+09
5.23523e+08
1.07165e+09
1.61991e+08
2.68976e+08
9.67028e+08
1.16464e+09
1.94507e+10
1.15039e+09
3.71866e+09
1.61593e+10
2.30871e+11
2.35201e+11
5.97687e+09
1.83646e+09
2.10964e+08
2.39121e+08
5.0363e+09
1.26289e+11
1.93973e+08
2.74034e+10
1.84556e+11
1.41899e+08
6.15622e+09
7.04415e+09
1.86379e+11
4.4382e+09
1.32924e+10
2.76604e+08
4.95705e+10
4.71548e+10
2.73401e+08
1.87749e+09
3.57314e+09
2.12028e+10
1.76679e+08
6.99353e+10
5.14489e+11
3.01462e+10
7.74475e+09
1.89482e+10
1.53917e+11
3.27725e+10
3.21629e+08
1.00409e+11
4.35259e+10
2.25089e+10
4.19575e+10
2.1266e+10
3.98509e+10
1.77899e+10
2.14035e+11
4.63531e+10
2.26204e+11
1.74647e+11
8.20647e+10
1.08686e+09
1.56462e+10
3.6641e+10
3.5437e+09
6.79283e+08
1.62535e+10
1.26576e+10
1.33596e+08
3.39921e+08
1.13674e+10
1.61028e+11
1.0138e+08
2.45946e+10
1.19235e+09
3.30086e+10
1.16022e+09
1.48457e+10
4.97839e+09
3.01212e+09
7.97472e+09
2.24551e+08
2.28331e+06
4.96184e+09
5.58456e+09
6.10554e+09
2.0319e+10
5.49888e+09
1.11842e+10
1.87179e+08
3.36288e+10
1.83434e+11
1.85506e+10
2.21921e+11
5.98643e+09
7.4252e+07
1.16229e+10
7.74348e+09
1.27055e+10
1.25515e+09
6.24685e+09
3.58771e+08
3.67915e+10
6.5016e+08
1.52093e+08
6.44667e+09
1.73114e+11
1.19983e+09
4.21972e+10
6.6947e+09
3.77801e+10
4.40712e+09
7.95735e+10
4.25362e+09
4.30441e+10
1.28587e+11
6.21473e+09
2.00803e+10
1.40064e+09
3.38435e+07
4.15533e+09
1.2084e+10
2.49529e+08
2.85571e+08
5.89546e+09
1.15404e+10
4.14681e+10
2.13729e+10
1.09259e+10
4.07406e+10
2.8183e+08
5.81888e+09
4.26771e+10
7.76478e+09
1.85938e+11
2.45401e+11
1.92601e+11
3.37112e+10
2.41338e+08
1.42656e+11
3.58266e+10
3.03945e+08
1.80233e+09
3.26009e+08
3.12274e+10
5.32867e+09
1.504e+10
3.24447e+10
4.01153e+10
5.77925e+10
1.18707e+09
6.02727e+09
3.0098e+08
1.61751e+08
1.48883e+09
2.58114e+10
6.92171e+08
2.41697e+11
3.11598e+07
5.55235e+09
5.52574e+09
4.69748e+10
5.46999e+09
1.93957e+10
9.23447e+08
4.83866e+10
3.75223e+10
1.58968e+10
7.38139e+09
1.32981e+11
6.31116e+08
3.44595e+08
4.0105e+08
1.95025e+11
3.32445e+10
1.38524e+10
1.17772e+11
1.51177e+11
1.18196e+09
2.32413e+11
4.94264e+10
1.67552e+10
5.27517e+09
1.9929e+08
6.56919e+09
7.82452e+09
2.89635e+08
1.48736e+11
3.47767e+08
3.21483e+08
1.25127e+09
1.20769e+06
8.68148e+10
1.8735e+10
3.20387e+10
1.66498e+10
6.62561e+09
5.61403e+09
1.70254e+09
1.47351e+11
3.0194e+10
1.03216e+10
3.3052e+09
1.15777e+10
3.50086e+08
3.11202e+10
2.73428e+08
3.04685e+08
4.04787e+10
1.36242e+08
4.48915e+10
1.74622e+08
8.87408e+09
2.49423e+11
3.99359e+10
3.43646e+09
1.0567e+10
1.03732e+10
1.43345e+10
8.16597e+09
1.74617e+09
9.48859e+10
1.04097e+10
4.70254e+09
5.17683e+09
1.38993e+08
9.40363e+07
7.67772e+08
1.01183e+08
3.26999e+08
3.37019e+10
5.04185e+10
7.27009e+09
1.16222e+11
5.03594e+09
1.42343e+11
2.08114e+10
2.73651e+08
4.08679e+10
2.2595e+10
2.524e+08
1.03673e+10
7.33897e+10
1.38415e+11
5.72314e+10
2.04562e+11
2.42628e+10
4.87752e+08
3.77844e+09
2.13562e+10
1.15432e+09
2.19471e+09
2.03843e+09
5.201e+09
3.11745e+08
2.80872e+08
1.75614e+08
4.24883e+09
1.20685e+10
5.99802e+10
1.73604e+11
1.64286e+10
7.63943e+09
9.59199e+08
2.9282e+08
2.54747e+09
6.94778e+09
2.80229e+08
6.24439e+10
7.49266e+10
2.1906e+11
3.17288e+10
5.86832e+10
4.97427e+09
5.05598e+10
6.15227e+09
1.83444e+08
3.64537e+10
1.3684e+11
1.38286e+11
5.86292e+09
3.63385e+10
4.75322e+10
1.69013e+10
7.65142e+10
5.74316e+10
2.14596e+08
1.54539e+10
3.55596e+10
1.40243e+11
3.09268e+10
1.06999e+08
5.41549e+09
3.17934e+10
1.27559e+11
5.05705e+09
1.42623e+08
2.23589e+11
2.51841e+08
1.8117e+10
1.06309e+10
2.02868e+08
6.73786e+09
4.1821e+10
3.61571e+09
6.08441e+09
2.37427e+10
7.11529e+10
4.93505e+09
1.2909e+10
1.12782e+10
1.01906e+11
3.21643e+10
2.48142e+10
3.94485e+10
5.34355e+08
7.33246e+09
3.18613e+08
1.70565e+11
6.33503e+08
7.43566e+08
2.01164e+11
3.83944e+08
1.21518e+10
8.88963e+07
7.58467e+09
7.18174e+08
7.40725e+10
1.66886e+10
2.06114e+09
3.318e+08
1.60995e+08
9.38532e+08
9.79187e+09
1.29978e+11
5.14628e+08
1.52212e+10
5.11848e+08
2.35287e+10
1.85143e+09
5.50718e+10
3.53805e+10
2.44399e+11
4.18146e+09
1.82957e+10
5.94277e+09
6.70411e+07
7.26886e+06
5.1117e+08
2.03252e+10
1.25047e+11
5.97108e+09
4.90892e+09
9.08677e+10
3.46976e+10
4.98627e+09
1.20616e+10
1.28607e+11
5.17271e+10
7.84913e+09
2.86469e+10
7.65371e+09
3.57966e+10
7.39817e+10
5.59264e+08
4.89464e+10
3.18828e+10
4.98609e+09
4.46001e+09
1.53063e+11
3.96259e+09
3.76993e+10
2.50476e+10
1.27535e+11
5.63778e+09
8.03498e+10
7.54949e+09
3.63973e+08
3.44667e+08
3.69536e+09
5.67922e+09
2.86505e+10
6.05312e+09
1.45374e+09
4.31374e+09
7.10037e+09
1.18459e+11
8.44086e+09
4.20714e+09
3.66979e+09
5.3975e+09
9.1972e+09
2.40214e+08
3.8073e+10
3.39644e+10
2.54938e+10
2.20521e+10
5.46755e+10
3.12629e+09
1.18215e+09
2.63822e+10
1.33548e+11
1.11615e+11
1.46961e+10
3.08615e+09
4.62794e+09
1.30292e+10
6.23306e+09
1.96655e+06
2.78294e+08
4.40095e+09
5.35465e+10
2.30936e+10
8.11662e+10
2.0552e+11
1.86506e+08
1.75127e+08
1.15978e+11
2.41012e+09
7.67975e+09
1.80054e+11
1.178e+10
4.73789e+09
9.11196e+09
1.20924e+10
7.31195e+09
8.39465e+07
9.45576e+10
5.27973e+09
3.07285e+09
5.77662e+08
4.28773e+10
1.68775e+10
5.71272e+10
6.40695e+08
5.04007e+09
9.75891e+10
8.66321e+09
5.52519e+08
3.98535e+10
2.07344e+11
6.88558e+09
2.27791e+08
5.42235e+09
1.44562e+10
1.18363e+11
1.30853e+11
8.96479e+10
1.9104e+10
5.34411e+10
2.26536e+09
1.07217e+11
8.00282e+09
7.51977e+09
1.97116e+10
1.51596e+11
4.44268e+10
4.7943e+08
1.4524e+08
1.27464e+10
1.3866e+10
8.21355e+09
4.72291e+06
5.08871e+09
1.51649e+10
9.44756e+10
6.14991e+09
1.56376e+09
1.36611e+10
1.90507e+10
5.29259e+09
5.98997e+10
1.76945e+09
4.98794e+10
3.38711e+10
4.58388e+09
3.77503e+10
2.06129e+10
1.19171e+11
9.69387e+09
2.98328e+10
1.36734e+11
1.17309e+09
8.30257e+10
3.85662e+10
2.53607e+10
4.61132e+09
3.96342e+10
3.38226e+10
3.77597e+09
1.47374e+11
6.68778e+09
3.14707e+09
4.85905e+10
1.17935e+08
1.23858e+11
2.28214e+09
3.13928e+10
1.28844e+11
9.52703e+09
1.35812e+09
1.91816e+11
5.39324e+08
5.59401e+10
1.58648e+09
1.54023e+11
4.50416e+09
4.63946e+09
3.58453e+08
4.71598e+10
4.22952e+09
3.17022e+08
3.09709e+10
1.23817e+10
1.35175e+10
5.95533e+10
2.10482e+08
3.14032e+09
1.25613e+10
1.22083e+10
5.20177e+10
5.16178e+10
4.88928e+09
4.73737e+10
1.6097e+09
4.94624e+10
6.86233e+08
4.2953e+10
7.29502e+09
5.27082e+10
9.60695e+09
3.40067e+09
3.56566e+09
9.32561e+09
2.03674e+09
4.28201e+09
3.64906e+08
7.50937e+08
2.73295e+10
8.6363e+09
4.19987e+09
1.43119e+08
1.65408e+10
1.43549e+11
1.81541e+10
5.95995e+09
5.2841e+10
5.81699e+09
1.97275e+08
6.49451e+08
6.75583e+09
2.63876e+10
3.30123e+10
2.10795e+09
1.97402e+08
3.82821e+08
5.67025e+08
5.38795e+10
4.05326e+10
1.13571e+09
1.38718e+11
1.00716e+09
2.64836e+09
3.04858e+08
1.27294e+09
1.30008e+09
2.91493e+08
2.70287e+11
2.36692e+11
6.26616e+08
1.9538e+10
3.90969e+09
1.55467e+10
8.35483e+09
1.05741e+10
5.07114e+10
1.84545e+10
4.31079e+10
3.13322e+09
3.46915e+09
2.59688e+08
2.93138e+10
9.08586e+08
1.55674e+08
3.51354e+10
1.55812e+09
4.95152e+08
1.57816e+11
8.68544e+07
4.59304e+09
1.5881e+09
1.99822e+10
6.31668e+10
2.05519e+09
2.77212e+10
7.25846e+09
1.11673e+10
4.22501e+09
9.97836e+09
1.28765e+10
1.69391e+10
3.40097e+10
4.08961e+06
1.30567e+10
9.41358e+07
9.34553e+09
1.02458e+10
2.79694e+10
2.02761e+09
4.18936e+09
8.63146e+09
9.86956e+09
4.60839e+09
4.73802e+08
1.42858e+08
2.14034e+11
5.48662e+09
9.8259e+10
8.129e+10
1.04984e+10
2.09612e+11
8.23296e+09
1.42316e+08
2.67578e+08
8.47263e+09
2.25202e+10
6.81977e+09
1.83583e+10
6.91915e+09
7.1178e+09
5.23428e+09
1.3233e+11
9.4351e+10
1.43547e+09
1.33649e+09
3.29582e+09
6.27933e+09
4.86077e+10
5.42987e+10
7.50101e+10
5.33295e+10
1.97998e+11
3.50802e+09
2.68252e+07
6.78182e+09
3.67563e+10
1.5925e+10
5.44197e+08
1.14363e+11
4.78665e+09
4.52825e+09
8.78595e+07
1.6219e+10
2.9092e+10
9.87705e+09
3.13068e+10
1.13412e+10
3.49398e+10
8.26679e+10
4.95497e+10
8.68662e+07
1.34489e+10
4.79083e+10
4.68715e+09
1.93325e+09
6.23942e+09
1.74994e+11
4.80116e+08
1.26275e+08
4.89652e+09
4.9594e+10
4.80767e+09
4.29346e+10
3.57119e+10
7.14339e+10
5.57818e+09
2.11784e+10
4.79081e+10
8.92215e+09
1.97094e+11
5.23063e+09
1.93453e+10
6.6698e+10
9.63341e+09
1.82203e+11
4.24688e+10
1.15618e+10
9.30549e+08
1.73069e+10
2.18577e+10
5.08286e+10
3.93344e+10
4.13574e+08
4.05634e+09
2.88527e+10
2.94985e+08
1.42665e+08
7.64945e+09
2.45875e+09
1.04584e+11
1.36585e+08
3.47931e+10
5.24177e+08
1.65299e+10
1.91417e+10
3.46135e+10
6.75436e+10
5.77147e+09
2.47957e+08
9.06928e+07
3.03484e+09
5.97749e+10
1.11584e+09
5.18144e+09
1.81955e+10
2.75219e+09
4.8381e+09
4.80438e+09
8.93611e+07
5.4343e+09
9.78334e+09
2.48451e+08
6.5774e+09
1.06365e+10
1.59384e+10
7.36352e+08
7.55406e+07
6.8444e+07
9.83819e+07
1.08716e+08
1.20599e+08
7.65815e+07
7.47321e+07
8.98145e+07
7.93133e+07
2.41397e+10
5.35107e+10
1.57992e+09
1.23367e+08
2.67828e+10
2.5576e+08
2.85713e+06
7.18875e+08
1.71825e+08
1.84698e+10
2.23846e+08
1.15432e+10
3.41414e+08
3.77166e+10
2.91867e+08
3.33062e+10
2.70647e+10
1.43381e+08
1.63187e+10
4.20359e+09
1.9471e+10
8.72783e+10
5.39063e+10
1.11427e+11
1.22494e+10
1.43621e+10
7.8466e+07
1.47544e+11
3.61217e+09
2.34512e+10
6.72229e+10
1.38745e+11
4.55422e+09
6.99239e+08
9.7046e+08
5.75172e+08
4.51122e+08
2.18187e+08
6.83814e+08
3.44926e+10
1.65202e+09
2.10903e+08
5.55527e+09
1.29832e+11
1.00177e+10
9.62289e+09
6.46546e+10
8.77636e+09
1.27255e+09
9.9649e+09
4.88175e+10
1.63645e+10
1.30075e+08
9.85159e+10
2.70008e+08
1.18305e+10
4.49203e+09
1.29745e+09
9.38539e+09
1.40651e+09
3.48427e+08
4.50858e+09
1.4756e+11
9.73788e+10
1.52105e+10
2.97632e+10
1.91954e+09
1.70144e+08
2.46525e+10
6.67602e+08
1.41133e+11
3.30759e+10
2.254e+11
6.21253e+10
8.15164e+10
2.18516e+09
5.43435e+10
4.29182e+10
1.51922e+09
3.47335e+10
3.98622e+10
4.85328e+09
6.15632e+09
9.80692e+09
6.38056e+09
5.78801e+09
2.58897e+08
2.07522e+10
6.1625e+09
1.42579e+11
1.89075e+11
9.52823e+08
7.71392e+09
4.77139e+10
1.06944e+08
3.24902e+08
1.22366e+10
2.73219e+10
4.47246e+10
9.42272e+09
1.80918e+10
3.37681e+07
8.66485e+09
8.24442e+10
7.20809e+09
8.50922e+09
1.72046e+10
3.0632e+08
4.47418e+09
5.45319e+10
6.75592e+10
2.66595e+10
4.1653e+09
2.70838e+09
1.97396e+09
5.54273e+09
1.35139e+09
1.18293e+10
2.19063e+10
1.41503e+09
2.64079e+08
1.82506e+11
1.27063e+10
2.22558e+11
1.53788e+11
1.29005e+11
3.18748e+09
1.14935e+11
3.39214e+08
2.00592e+10
4.82088e+09
4.07851e+10
2.21895e+11
3.41089e+09
1.54501e+11
5.56214e+10
3.4604e+10
1.39203e+11
1.14486e+10
2.95162e+08
9.36236e+09
3.43764e+09
2.09145e+08
1.2709e+11
1.32922e+11
8.70053e+10
2.25499e+10
4.22738e+07
6.46218e+08
6.43208e+09
5.03648e+09
3.38108e+10
2.57335e+09
2.80398e+08
9.52209e+09
3.10946e+09
4.9964e+10
1.93221e+10
5.62029e+10
2.05263e+10
5.88791e+09
7.7191e+09
5.377e+10
4.56597e+09
1.16706e+11
1.7564e+10
7.04018e+08
2.33597e+11
1.95664e+11
1.81748e+11
4.99668e+09
1.48792e+11
3.13166e+10
2.49408e+10
1.15091e+11
8.47802e+09
4.27528e+10
9.57672e+08
9.80345e+09
4.31133e+09
1.42811e+10
4.47585e+09
3.09926e+10
7.73094e+10
5.55497e+10
4.63567e+09
1.59042e+10
3.57539e+10
4.74081e+08
3.81366e+10
9.82716e+08
7.0144e+09
2.33733e+08
3.47641e+10
5.29367e+10
3.31005e+10
4.27413e+10
5.58941e+10
4.05204e+09
7.1445e+10
8.47762e+09
4.02003e+10
1.7149e+10
1.97661e+10
2.53306e+10
1.8708e+10
2.08728e+10
9.6778e+09
3.34656e+09
5.17543e+10
1.51505e+08
4.34952e+08
9.22491e+08
3.43318e+09
7.53769e+10
2.30795e+11
3.05525e+08
5.66621e+08
8.88452e+10
1.08529e+10
3.23584e+08
9.88333e+10
7.51181e+09
3.94029e+09
4.32359e+10
1.83813e+10
2.98727e+10
1.39433e+11
4.27996e+10
7.09355e+09
3.90364e+10
3.14502e+10
1.63684e+10
2.30888e+10
1.68538e+10
4.20566e+09
8.27366e+08
2.92663e+09
5.6681e+10
1.06696e+10
6.87489e+10
2.54626e+10
3.33491e+10
3.82321e+10
2.60068e+08
3.22739e+08
9.21396e+08
2.25934e+11
2.25166e+09
2.2467e+08
2.2921e+08
4.82335e+09
4.42889e+09
3.36564e+09
5.00035e+09
1.7997e+10
7.04723e+08
5.29456e+10
1.18768e+11
3.40241e+10
4.20494e+09
9.58277e+09
4.84813e+10
3.90368e+08
2.95288e+09
2.12636e+09
4.70128e+10
1.1476e+10
2.04307e+10
1.10036e+10
3.08856e+08
5.23841e+08
2.49004e+09
1.43438e+10
4.48936e+08
2.40467e+09
9.82489e+07
8.30382e+07
1.1039e+10
6.9717e+08
1.19109e+10
3.40815e+10
5.80425e+10
1.23075e+11
1.63771e+10
3.69885e+08
2.35623e+10
6.52823e+10
4.78733e+09
9.89745e+10
3.62301e+08
9.18626e+10
1.7034e+10
4.65489e+10
1.07785e+09
2.94691e+10
1.18311e+09
1.84624e+08
4.66002e+09
1.13186e+10
2.02942e+10
2.43889e+09
1.74978e+10
1.99252e+10
1.99873e+10
3.95905e+10
2.59077e+10
1.73041e+08
4.32028e+10
3.28747e+10
7.31819e+09
3.42015e+09
1.48504e+10
7.25771e+09
1.67771e+11
4.71573e+09
3.63491e+10
2.615e+09
3.51676e+08
2.10835e+08
4.39071e+09
1.49687e+09
1.79333e+10
2.82799e+10
5.14458e+08
6.27935e+10
2.13448e+08
3.36688e+08
2.27774e+10
1.89834e+11
4.09857e+08
1.2577e+10
1.2962e+11
2.55197e+08
1.95759e+08
2.51108e+10
1.17197e+09
3.50765e+08
6.36023e+09
6.33872e+09
6.72418e+08
4.321e+09
2.89348e+10
2.26197e+11
4.89243e+09
5.32723e+09
4.49867e+09
1.01939e+11
9.79038e+10
4.66595e+09
1.16868e+11
8.97847e+09
1.84327e+10
5.94616e+09
7.43087e+09
1.39886e+08
1.33159e+10
2.20769e+08
4.96654e+08
2.49537e+09
6.71574e+10
1.56366e+11
7.4704e+09
3.15268e+10
1.84728e+10
5.9006e+09
7.38817e+07
1.13966e+09
8.85329e+09
6.26239e+09
7.21343e+07
3.55827e+09
8.98834e+08
1.94415e+08
1.70092e+11
1.35364e+08
6.64949e+09
5.36031e+09
1.68054e+11
1.32626e+08
2.36131e+10
4.05478e+10
3.46216e+10
1.10832e+10
1.92044e+10
4.33352e+10
1.62553e+11
6.15956e+10
3.12353e+08
3.87637e+10
6.78351e+10
1.14642e+08
1.38667e+09
1.01182e+09
1.77328e+08
2.10577e+09
2.72736e+08
1.89164e+10
4.33385e+09
9.42064e+09
6.33727e+09
2.6747e+09
1.11788e+11
4.04068e+10
2.02653e+10
2.1934e+09
1.00726e+10
4.02204e+09
1.91285e+08
3.96381e+09
5.73133e+09
7.75755e+10
2.41157e+09
4.27325e+09
1.98703e+10
4.32569e+09
1.61242e+08
6.16723e+10
2.14655e+08
2.20209e+08
6.12754e+10
1.01295e+11
9.80882e+08
2.03905e+10
5.02122e+10
8.70547e+09
2.73939e+10
4.64874e+08
6.03195e+10
1.6568e+08
1.51224e+10
2.73461e+09
3.52584e+10
1.70564e+08
4.15204e+10
1.37492e+10
3.88295e+09
4.39669e+09
1.0291e+10
3.60233e+07
4.21576e+09
1.45735e+08
4.18233e+09
3.49456e+08
2.0827e+10
1.82395e+10
4.77276e+09
1.36461e+09
4.87481e+09
3.34909e+09
4.5114e+10
1.73934e+11
1.34311e+10
1.24671e+09
6.18146e+09
2.85492e+11
1.41853e+10
4.87373e+09
3.51201e+09
1.21687e+11
8.75329e+09
3.63621e+08
3.85521e+10
3.57906e+09
5.13857e+10
1.04131e+10
6.49871e+09
1.48869e+08
5.88838e+10
2.34658e+08
2.05523e+09
8.94466e+09
3.87891e+10
3.65889e+10
1.09955e+11
2.26514e+11
5.47566e+09
3.66575e+10
5.21174e+10
8.22987e+10
2.89422e+08
2.19254e+10
3.66435e+09
2.07075e+10
7.9517e+10
6.7949e+08
2.37994e+08
4.62484e+10
1.59259e+11
5.09313e+10
4.85838e+08
6.20344e+07
7.5135e+09
2.59059e+08
2.26611e+11
1.59615e+10
6.16926e+09
2.84657e+10
3.21923e+09
2.60217e+08
1.63818e+10
4.38364e+09
7.38961e+09
7.34274e+09
1.60533e+10
3.63776e+09
1.37615e+11
3.44153e+10
1.4831e+11
3.07456e+08
1.14481e+09
7.23406e+09
1.05313e+11
1.80685e+09
3.32647e+09
6.64291e+08
4.37922e+09
1.41817e+10
7.60603e+10
4.72119e+09
1.06387e+10
4.15429e+08
2.03085e+09
4.58734e+10
1.74648e+08
2.53132e+09
2.93243e+08
5.40089e+09
1.7491e+09
4.99343e+10
4.3717e+10
5.75545e+10
1.05108e+10
8.31097e+09
5.28733e+10
2.64564e+08
4.51979e+09
9.60667e+10
1.1368e+11
4.607e+09
2.97317e+08
5.25898e+10
1.00787e+11
1.23953e+08
1.25035e+11
4.63165e+10
2.51739e+10
5.81264e+10
6.24295e+10
4.67321e+09
1.92028e+10
1.0447e+08
1.53108e+10
2.04802e+10
3.13941e+08
1.6413e+08
1.87502e+08
1.07525e+10
2.23618e+10
2.93658e+10
3.20909e+10
3.78882e+08
3.52521e+08
7.11322e+09
1.19375e+09
2.47167e+08
3.90231e+10
9.4818e+10
3.83939e+10
5.78862e+09
6.49737e+10
3.03497e+08
8.48665e+07
1.31878e+10
9.9268e+09
3.6736e+09
1.86865e+08
1.79242e+08
1.91675e+10
3.50182e+10
3.35631e+10
7.85856e+09
1.18609e+10
7.10306e+10
1.38478e+11
9.86725e+09
4.37235e+09
1.90962e+08
1.27025e+10
1.47743e+10
5.55394e+09
1.23232e+11
1.50195e+10
1.2447e+11
1.99114e+10
9.99753e+07
1.66061e+08
2.61775e+08
7.70989e+09
3.09923e+09
4.82491e+09
1.15585e+10
1.24503e+08
7.06086e+08
4.51472e+10
6.57607e+09
8.93683e+07
9.69198e+10
1.17132e+10
3.1123e+10
1.4273e+09
9.31554e+09
3.00513e+10