/*--------------------------------*- C++ -*----------------------------------*\
  =========                 |
  \\      /  F ield         | OpenFOAM: The Open Source CFD Toolbox
   \\    /   O peration     | Website:  https://openfoam.org
    \\  /    A nd           | Version:  8
     \\/     M anipulation  |
\*---------------------------------------------------------------------------*/
FoamFile
{
    version     2.0;
    format      ascii;
    class       volScalarField;
    location    "7e-05";
    object      k;
}
// * * * * * * * * * * * * * * * * * * * * * * * * * * * * * * * * * * * * * //

dimensions      [0 2 -2 0 0 0 0];

internalField   nonuniform List<scalar> 
23640
(
3233.16
23056.8
103.527
41074.2
17230.4
23149.5
12511.3
7838.46
44871.1
25603.5
25795.8
25743.5
4147.94
16163.2
37883.9
21289
1773.57
46088
41415.2
45395.4
25166
98.7997
26261.9
13875.6
13360.8
16108.8
70324.1
49207.2
1077.53
7025.96
3159.46
81446.4
24390.2
36700.6
38084.5
33352.3
1815.35
2039.79
649.051
11763.1
30262.8
41341.8
15065.7
1000.73
57703.5
70214.2
2467.86
24435
25559.1
7210.01
81261.1
55039.3
35930.2
1838.75
41928.7
6232.44
26581.3
22456.3
7496.24
53611.6
3099.47
70027.5
22905.5
54580.2
9282.54
54390.4
22300.3
15360
22575
15294.3
11002
36062.7
29366.7
1780.37
17740.6
80489.5
616.426
4035.91
40689.3
23179.8
70881.6
53819.6
11668.3
11979
8967.73
15381.4
54807
3944.31
18278.3
35761.7
9707.26
21838.8
36553.2
32742.6
59658.4
6129.91
53580.1
10742.2
16734.7
34901.9
39590.7
1806.26
10657.4
2051.6
33847.9
1888.52
20265.1
1675.92
28286
19252.1
2778.01
29830.3
28467.6
30158.8
31294.5
1250.05
38408.7
2541.53
3077.05
7270.14
4499.39
77612.6
11364.6
79496.7
65145.3
10840.1
81446.4
51152.1
23362.8
30147.9
52606.2
46639.2
4161.44
69654.4
2405.31
3127.83
23704.3
14420.5
26298
50544.6
17917.7
27276.5
29202.8
25994
23526.7
17680.2
23074.3
14313.6
10201.9
22156.5
6981
10419.9
12431.8
29844.9
55293.8
1624.51
12550.6
35273.6
12890.8
70460.4
32608.3
31767.7
34082.8
13953.3
1020.63
775.046
13773.5
72627.9
21941.4
45506.4
23648.4
31067.1
17401.1
27512.1
20950.4
19674
29514.7
46866.1
23208.9
7734.83
57351.8
2941.1
14237
50406.3
1209.56
66607
67731.9
36986.5
49897
52545.4
33585
23536.8
76107.6
12128.8
1247.2
10011.7
33977
34805
2300.83
66082.4
33410.3
677.926
2257.85
40434.6
35353
7988.73
1655.41
25486.8
41862.2
15220.8
16675.2
15618.2
4290.37
8101.34
10747.4
21443.6
27334.2
45119.3
14615.8
873.843
4531.25
24836.3
33126.5
26556.6
15358.2
27541.5
19999.1
78683.1
940.128
9729.41
3537.22
1340.08
42941.4
16424.6
34646.2
53948.1
11384.8
21703.5
10338
66254.5
41730.8
10179.3
30625.5
36489.6
38336.6
1435.44
5019.89
11571.9
26180.4
11232
56075.3
18226.7
2447.22
20678.7
7213.97
11874.4
290.443
1406.65
26759.9
23961.9
50995.8
2748.15
41960.8
27037.2
1095.96
14932.2
67008.9
15509
7217.06
57454
30637.4
706.126
3449.52
51052.7
47754
36228.8
1217.63
77700.2
57004.8
27245.8
10384.5
921.743
68185.9
25629.2
20721.1
69626.7
13529
39724.4
22240.8
25822.2
8430.51
1646.3
21485.7
14228.1
26476
12771.7
27414.5
1866.06
18435.6
2387.89
73702.2
53606.3
78593.4
21039.6
24229.1
746.751
49677.4
71209.6
47092.1
27701.7
1112.22
49734.9
21083.4
37513.4
33337.8
67202.7
36711.2
163.683
58944.8
22025.8
3285.64
35747.9
37773.1
48516
2344.59
53907.4
25265.3
12944.7
3991.32
81567.3
71944.5
7942.19
51083.8
61775
15161
20303.3
2451.61
31502.6
11943.3
18128.6
10639.5
29437.4
54749
78041.6
19959
47567.1
70908.2
24133.1
27121.3
42841.5
23715.2
51060.6
1349.62
2492.63
37208.5
732.003
6102.77
2570.16
22127.4
24911.4
67078.7
26648.5
50453.7
2182.46
21776.8
576.195
597.411
29846.3
41349.4
7128.59
63910.5
15888.8
1106.43
32867.6
64524.8
1322.71
62261.3
535.211
13130.2
66446.6
31151
16383.7
20107.5
31684
21250.5
1981.65
34888.4
698.758
10900.8
793.482
60531.7
24735.1
1696.52
36291.5
40661.2
13720.8
77072.8
2222.23
2398.45
71227.9
2322.71
7122.78
32543.4
748.919
4066.68
18815.3
38191.4
1123.41
35887.1
13940.5
34403.7
26030.8
21458.6
51040.6
23496.2
29502.4
69986.2
4771.17
42006.1
39906.2
26758.1
59573.7
18498.9
35095.1
30206.3
831.811
78844.7
12845
26218.2
9473.57
1410.88
62568.4
14746.5
25950.2
60754.5
20186
66113.7
32828.3
61285.4
56198
62615.3
20817.6
22849.6
35589.6
64252.4
17783.7
71256.4
29374.3
30848.2
30025.6
81869.8
22579.2
21579.4
24643.3
49364.9
2212.26
18321.9
48614.9
24229.6
26956.3
41107
20480.9
29831.6
81835
36483.7
7336.23
37788.3
2392.49
40809.5
34071.5
51432.5
7551.3
52180.7
497.98
2728.2
70946.1
16340.2
81819.8
48736.5
77407.1
14502.1
1275.81
42395
35856.9
36832
39057.5
20144.4
869.459
3246.39
2435.42
66094.2
74836.4
3886.4
11374.1
13414.3
18533.9
36634.6
74377.1
41961.4
2489.64
5924.2
24284.5
843.512
18876.1
6865.56
7226.84
40441.7
963.26
1609.84
4155.93
70217.9
3160.47
33440.2
22096.8
26243.2
32059.6
28983.4
1197.15
34855.1
24411.3
35305.1
61492.7
81870
35683.4
24904.1
28835
26249.8
45726.9
31193
7550.52
20606.2
15905.9
55363.4
10251.1
12350.7
4865.34
35402.2
41265.3
1479.02
59557.5
9128.2
7009.91
13627.5
18236.2
1905.51
15039.9
35453.9
21751.6
10227.8
10352.7
62592.8
16547.7
7902.77
888.111
61582.5
5266.48
16808.6
8243.49
24338.8
22033.9
4453.41
17109.7
19751.4
66432.2
47682.4
26629.3
18404.6
33196
49442.8
26510.3
81863.6
16537.6
13220
1799.98
2417.84
41408.6
14788.2
16875.8
33693.1
2202.54
63512.4
20610.4
2517.47
46420.5
37105.4
16453.6
10237.3
33634.6
15911.4
33240.1
25776.8
12979.9
29969.9
33500.9
7255.11
58183.6
43854.2
69442.5
7639.27
39964.3
23982.2
30483.6
27339.2
51787.6
7003.31
9147.59
37059.5
2929.85
30822.4
26115.4
6954.91
7234.07
25187.1
9477.86
24166.4
37989.1
19181.8
19771
1842.46
79337.1
36055.5
27650.6
45885
25963.8
17510
58930.4
21416.4
31912.7
6440.78
23310.9
624.748
14421.3
1671.01
7641.35
782.937
46755.8
6052.16
23164.3
2206.41
33506.7
34269.4
9270.72
16465.9
3977.06
4088.37
20795.9
32358.4
68587.6
1922.85
24738
35743.7
77869.6
21586.6
9604.96
44227.1
48727.3
41140.7
19958.4
4401.37
5114.34
41876.4
72915.2
1227.92
54592
18.951
18.8703
4131.21
76819.9
20500.6
22192.1
78258.2
18047.6
20284
41158.8
55774.6
1735.85
4881.53
16889.5
2505.07
24327.4
58398.1
17312.9
17009.9
863.392
33987.1
1997.73
40812.9
32675.7
70950.3
78002.7
1036.16
2527.11
44447.4
14871.1
61952.4
1574.02
39923
55119.3
14095.1
28019.2
81543.4
56662.2
37922.5
11982.2
2334.71
47993.6
9943
32505.6
13851.4
48194.7
32115.6
10530.4
40806.1
1048.58
93.2171
31512.3
34376.2
18249.4
25750.7
18908.5
39566.6
70817.6
31128.4
812.966
55420.3
40.0817
1222.16
1402.43
32020
36155.7
23778.4
2432.68
22462.8
14293.3
1417.86
26746.1
1804.41
29738.7
22976.6
24027.1
10388.2
33478.7
23205.2
54033.4
1710.58
69116.5
2621.56
15662.2
947.98
6119.78
64062.9
589.253
13487.1
5116.46
13453.9
81815.9
65908.4
2019.01
55882.7
10404.6
2317.37
7703.61
53827.5
11298.2
36760.3
7359.43
24743.2
38012.4
38671.2
54291.6
39568.2
35580
73751
28862
15911.8
4333.45
19702.4
14950.9
62456.5
3568.74
34949.9
79990.2
230.402
3761.45
11785.5
74455.4
68363.8
1135.76
51655.7
28880.9
566.256
37603.7
26446.9
6602.08
1134.04
14666.7
1867.36
20811.8
2231.48
11364.3
26745.5
31402.4
13509.5
2682.43
31032.5
47533.5
18813.5
37671
20446
5876.04
34220.6
15106.4
17162.7
37494
13043.6
41677.5
12267.7
4732.88
38168.4
30496.1
16554.1
681.436
4872.71
49531.1
5569.77
13475.8
52988.9
2659.54
31571.8
53494.9
5299.03
65169.5
2283.95
54908.8
28488.3
15424.5
19880.6
63651.2
406.117
4618.98
53926.6
26355.2
28110.9
35375.9
1367.46
2003.19
30169.6
5417.11
10207
17238
7269.64
3981.08
41998.6
4734.09
44450.5
81868.1
14675.3
50593.1
28993.3
47477
48795
2766.83
7312.71
12922.3
69552.5
3955.72
28359.6
2268.68
66006.8
27574.4
58061.6
13395.3
20854.1
25507.5
81821.9
1244.89
22212.6
77166.1
2248.71
769.195
34396.5
6511.9
53983.2
3341.03
54497.6
33682.6
22751.9
52481.6
39836.5
6020.64
276.376
69882.5
30802.6
24507
3565.09
53533.9
4342.69
9123
815.143
16274.7
33829.6
1829.5
15117.3
3284.19
54125.1
201.822
54296.1
9051.48
22884.4
1583.71
66808.9
796.73
27009.6
46837.5
36758.2
6113.74
67239
22622.1
33635.5
22715.8
17961.2
28534.8
7241.25
10514.9
728.268
31106.9
1237.51
15738.7
35348.9
79600.8
55011.5
32327.1
102.214
31861.9
53697.3
57417.5
34016
5668.84
17454.7
24788.4
19746.7
572.286
9474.13
22868.1
22917.9
35187.7
16206.9
45140.4
1158.82
2723.43
29177.9
25069
1748.84
26648.4
15222.7
6644.9
16949.9
436.04
18172.5
1680.42
45972.5
9026.7
34171.5
4125.95
30423.1
9653.84
18484.9
51220.5
9572.28
16167.2
30100.2
2647.27
23999.4
16715.7
18689.5
4239.34
30801.1
26248.9
35731.4
17988.9
17816.1
17072.8
28903.1
19555.2
16448
29932.7
657.216
4684.95
14326.4
42142.6
4041.43
37233.9
13802.3
31100.2
12928.1
13382.6
52472.2
7453.65
22370.1
40219.5
31253.8
4035.67
61945.4
53290.4
33892.7
70458.6
57734.1
1335.57
4377.7
5446.88
1002.39
7059.26
2213.44
12150.2
11724.3
32599.2
7071.63
12940.8
39318.6
751.994
37143.1
75415
541.357
13114.9
53288.8
1434.38
19157.4
28606.2
14927.3
17335.1
45690.9
53455.1
8772.74
40583.6
2338.85
8405.11
4496.91
35097.3
9975.07
2802.81
4500.56
17055.5
3250.06
12383.6
2373.77
68213.9
59692.6
69905.9
67298.1
45423.2
20344.8
23020.8
60935.1
12206.4
29908.5
7189.41
55419.9
10281.7
1773.42
34960.4
20821.9
15612.5
2196.83
26413.7
17125.1
4000.28
835.868
69826.5
70983.4
19935.9
14558.6
740.695
35129.7
66684.4
50711.5
11646.3
69723.9
3059.69
15527
13777.7
4049.23
37179.7
33529.8
66158.4
2062.16
37680.4
40307.3
39430.8
7894.53
29532.5
48464.8
12974.9
6548.14
40041
41732.2
6305.9
4526.06
2188.9
23352.6
14430.5
21942.6
520.745
443.582
34246.7
1312.14
23840.4
22653.9
1914.5
11839.9
69713.6
24996
14714
3303.25
3372.88
10126.5
18459.9
67720
64137.3
1956.2
53993.8
14145.5
3995.11
3185.85
1197.34
1764.1
79248.9
7023.35
37371.2
6960.47
59850.6
30786.6
28197.7
28674.5
21026.3
81786.7
1532.1
849.206
13746.4
1700.81
1211.86
56628.9
14420.8
1178.85
23566.1
13653.1
60325.8
33619.7
30751.6
1358.3
67436
31998.7
2328.25
8670.66
6845.21
37750.5
1269.53
72583.1
4736.31
52007.4
24793.7
33029.4
17112.1
46570.4
2316.37
47948.8
50623.4
37146.5
18471.8
41996.4
63493.7
27589.5
26384.3
45979.7
11945.7
33866.7
27612
6709.67
30322.1
51681.3
13215.1
2917.95
39095
34081.6
963.637
1667.86
31001.9
55397.4
887.988
12520.5
5949.59
32469.1
6464.69
13666.6
13701.3
12432.9
22281.5
1372.6
81861.7
9298.65
24287.4
18598
31009.6
24157.4
27863.3
1337.3
54439.9
27713.6
12150.5
13302.5
24043.4
629.863
28638.7
23585.8
28512.6
3716.45
18352.7
3189.23
62098.1
4592
597.852
19566.2
22946.4
6867.77
56183.5
25539.4
51376.3
24940.2
69755.7
54876.8
50196.7
25814.5
19521.7
44789
7208.77
63.7817
14267.5
27858.2
2443.16
812.292
17330.6
28039.5
39424.8
18173.4
20589.5
7171.69
1058.13
17512.5
42127.8
12677
2893.32
77628.5
29873.1
46186.9
1691.47
13723.8
58534.8
2873.6
3767.62
2769.02
41091.8
24904
20484.6
31993.4
63708.5
51735.2
7072.27
18441.2
104.319
1125.99
8271.68
5285.05
865.98
4937.04
110.298
16483.9
19474.1
65361.4
23898.4
34504.7
6066.84
4920.33
57259.9
29299.8
28479.7
29298.3
4714.86
2046.93
3423.52
2784.06
47793.2
29219.8
37590.3
35198.1
6743.09
17676.3
70471
40740.6
15950.8
1913.93
18505.3
22022.9
2712.04
2512.4
3119.07
2853.94
5940.85
81862.3
38404.8
21003.7
37559
39911.9
25775
19900.7
8566.02
21315.4
52089
33291.1
12323.7
29017.9
2148.71
40089.8
1246.69
2224.25
51142.5
1102.98
32502.5
1197.04
14003
33530.3
55080.7
13388.8
26169.8
17191.6
29893.6
21203.9
8690.87
66896.8
25992
21952.4
20264.3
1138.85
625.281
5369.4
470.113
2265.7
32927.3
49779.9
28347.8
29361
22846.8
7201.24
37312.3
2640.87
41511.9
39171.3
81716.3
10943.1
14355.3
67254.1
47888.6
19430
25308.3
3910.56
13565.8
33461.3
744.961
81631.6
8904.94
33917.6
2631.46
1787.73
1144.69
16573.1
27564.3
60723.2
17953.4
40666.5
14031.1
132.328
1345.55
11853
13778.1
2723.7
71134.3
28657.5
70954.7
40652.9
69842
24623.6
68281.4
18759.5
1713.7
23676.7
36646.7
56081.7
17717.6
54121.2
70039.1
34930.7
70657.4
64097.3
1158.6
4019.88
16704
17757.5
18559.6
727.743
24140.8
59735
33539.3
18706.9
1107.53
32590.6
953.319
8739.21
25738.2
1853.92
20251.3
42286.9
13813.7
24053.8
44199.3
65099.4
23105.6
13974.9
5514.69
41988.3
42578.4
21359.8
55749.3
4106.06
20475.5
2799.64
17427.2
3630.11
119.907
21137.4
2517.06
32784.5
805.954
13083
5114.59
32418.9
10104.4
3822.74
976.66
708.719
6083.59
31394.1
4850.28
3960.95
46406.7
4056.97
39549.6
5776.66
48344.2
62344.9
4558.52
56382.6
44435.3
17835.7
180.156
81817.7
3818.92
33419.1
54912.9
16886.3
17040
26666.2
55631.1
18460
26971
15636.1
50751.4
44092.8
25017.3
21733.2
58604.2
21497.8
892.19
36267.9
34778.4
24515.2
23756.8
35977.5
14008.5
31158
20596.8
34962.6
17673.8
22514.2
24061.9
2421.87
2763.39
13368.6
17768.5
57845.7
18822.4
6486.31
16705.2
15295.2
57052.6
22452
27930.9
60720.6
21373.9
56197.5
1315.1
55001.9
17441.9
12550.8
37778.5
46847.9
12030.2
6436.67
54975.2
1656.78
58914.3
40040.2
11912.9
38080.7
33318
19468.5
81871
2439.77
14708.8
63626.4
38725.8
74378.1
75015.1
1183.8
806.495
47658.4
11497
21057.9
59302.3
27362.5
22482
9972.57
26912
22671.5
615.222
44738.8
24736.4
12083.2
3188.76
33997.1
8473.45
28515.5
4678.09
17081.7
45704.6
22492.7
3021.87
52070.5
18676
18898.5
81283.9
33345.8
13094.3
20493.4
20234.5
28417
10673.7
47550.7
10801.3
16115.8
23417.9
15164.6
43635.7
43836.9
28250.7
2976.16
211.59
23853.7
30612.9
22595.3
81862
16561.8
18031.2
34604.6
37779.7
8059.92
29007.1
42846.5
9338.71
69769
8289.31
16724.1
53307.8
34020.5
51833
41301.4
38974.9
10677.3
59132.5
28028.1
5528.3
27843.2
61372.8
36317.3
24833.2
62383.3
48637.2
15064.1
34705.8
19487.3
13634.4
71388.5
1043.1
34374.8
76626.9
58852.6
8923.58
11807.7
2396.68
64881.9
3974.61
68897.5
7847.52
7574.41
24544.9
22994.3
3211.62
38065.1
26275.6
1138.17
51863.6
28552.5
29364.1
66175.9
1262.92
11965.9
28122.2
24439.6
31987.7
66360.8
22604.4
64328.2
625.665
39171.1
4973.33
56399.5
78506.3
57991.8
18435.6
74943.1
14824.1
24647.4
6774.54
31276.6
2129.41
5286.69
22346.2
24436.1
26669.9
993.015
25438.5
28445.2
13798.7
17105.9
33011.4
23076.7
1359.96
4707.22
15803.8
40404.3
52520.6
77041.3
1169.12
901.493
2598.12
69474.1
48518.5
3466.01
16098.9
5450.05
77113.1
2259.93
3116.75
6595.42
1343.82
77398.1
70844
4650.97
38140.7
14479.5
32621.2
13286.5
25854.2
69285.5
36059.9
56990.6
12238.5
14593.8
912.334
20840.1
5975.25
1154.31
57795.9
8558.89
3840.76
35670.6
726.09
24741
4882.39
58366.5
33909.7
7407.89
4660.09
14594.7
31336.4
16489.1
27067.3
34935.6
35162.7
44837.4
81864.3
10496.1
401.328
24820.2
27309.2
12435.6
8860.37
26853.2
23417.9
22399.5
22886.3
1987.27
731.53
7783.02
16227.9
4732.73
66421.5
33854.4
18884.6
29783.2
1333.56
1371.96
9942.77
47570
19554.7
28052
20292.8
25291
16847.5
10659.6
42168.3
3004.29
78843.7
8494.55
16739.1
71484.7
48720.6
48691.6
48349.3
20278.6
13481.1
81831.8
18745.9
61905.4
33571.6
2967.8
35904.6
42375.9
35903.5
817.798
29833
58392.8
11634.7
53243.5
10769.4
63105
30818.9
36495.8
696.926
34956.1
66691.4
22958.5
8762.56
39740.8
14431.6
3772.36
280.433
15655.4
70425.4
21423.2
52153
58019.3
33790.1
18167.6
18590.8
70512.2
22255.2
34371.1
17448.8
28065
10398.2
31137.4
28341.2
25694.9
11382.1
5579.67
35742.2
31269.2
64075.3
47570.1
3490.23
14832.9
37210.6
2440.84
1074.32
14199.5
72681.6
5409.46
1108.85
45313.7
4104.69
22937.8
36892.1
62989.2
70333.3
16795
1845.23
715.207
68818
35056.5
5746.3
17332.4
44905.9
11197
22765.6
21371.9
611.111
23165.8
19176.8
2074.62
19850.8
14280.2
25040.6
5205.84
573.071
572.344
446.54
649.636
580.767
342.893
654.284
649.991
646.634
44721.5
68163.9
4168.01
910.979
55633.5
2134.56
81864.1
3924.22
1210.7
33921.3
807.055
34893.9
2454.22
39000.9
2566.1
45600.7
29835.8
1325.85
9809.47
14304.3
39041.5
26447.1
39105.6
66604.9
29040.4
32352.4
307.948
18804.6
13359.1
20285.4
43277.5
51637.2
24620.8
5032.15
6229.13
4427.63
1190.68
1653.12
4792.51
48136.5
8092.77
1895.19
19586.5
7863.34
76189.9
23188.3
35155
15390.3
6558.73
73812.5
65181.6
29889.8
458.768
65836
1735.09
32331.9
24830.6
6641.23
23831.4
7020.36
3134.15
47015
14372.1
36269.4
30702.7
28066.3
9782.37
1231.77
16139.2
3588.52
39552.7
43264.7
11637.7
56691.1
6364.56
9163.18
58430.3
56926.8
7106.77
63008.8
38043.5
24265.9
57816.9
31646.8
26739.9
19047.2
1084.95
37282
18351.9
29012.3
31399.1
6172.69
21027.9
67735.3
526.541
1626.81
28494.6
55564.4
67270.6
12723.6
40979
81822.6
10943
70142
18327.9
15257.5
39174.3
1502.1
48229.2
33409.3
31611.7
54972.5
31052
11064.4
9005.18
17079.2
29.587
28491.7
42609.6
3387.69
2574.03
2114.6
17917.8
17703.6
49134
73055.7
12336.9
33995.6
3066.23
29206.2
21287.5
38414.7
16909.9
13508.4
35871.8
64816.4
53460.1
33689.4
34211.3
2820.98
22971.5
12958.9
1979.44
10254
69396.9
6261.04
48698.1
81841.7
4748.41
16486.9
16403.9
40102.2
10669.9
2389.71
24691.2
11473.7
58628.3
20748.8
35242.9
33836.6
20534.1
19510.8
33170.2
23146.3
35492.6
21195.7
2823.99
24511.9
78499.4
5959.53
16284.7
18825.6
41554.4
43339.8
35556
13641.6
55931.4
6187.11
11409.1
30634.9
29736.3
16704.1
19720.1
69534.7
69353.2
23197.6
42111
62276.9
1228.86
38248.9
28.9131
27965
1926.24
30327.5
44206.3
55467.1
51921.4
68961.6
13316.6
47285.1
13079.5
55515
43614.4
38900.4
25317.7
41716.6
10399.1
25255.4
12433.4
66539.1
1311.36
2299.62
5087.51
12753.7
45736.8
69466.3
2368.2
3375.82
38308.5
24532.4
1362.99
5210.38
13797.8
14499.9
45254.9
9015.17
51162.8
24516.5
64249.7
14650.6
35385.3
59052
34449.2
33930.1
42982.2
29415.5
81330.1
11386.6
70420
20191.1
43751.9
41552.9
59757
35440
2023.38
2730.68
4606.05
6293.18
10868.3
1295.61
1707.04
43004.2
34644.3
10675.2
24015.2
26076.7
5046.7
70411.2
33917.1
54993.8
28276.5
21572.8
40595.7
3365.8
11469.3
77772.1
55490.6
14398.2
5732.28
26451.3
2085.21
2203.24
11731.1
37096.5
3597.85
11494.5
81819.1
354.742
20123.4
5017.01
25550.4
21433.2
69966.4
69561.7
34506.9
3245.57
35872.7
34453.6
21712.9
25948.6
3195.94
58012.2
32066.3
67330
6624.81
33835.1
3066.98
1323.57
23982.6
32139.6
40798.5
11462.1
34649.1
35218.7
35526.4
21569.5
38606.4
1194.31
33289.7
51589.3
22281.9
75566.1
33099.4
20004.4
2920.36
29433.4
36167.1
10786.4
3155.54
1106.67
16994.4
6055.87
35007.8
48954.9
3480.34
63145.4
1966.22
3060.82
21551.2
33779
3377.12
29924
20828.9
1525.64
1442.07
43542.8
5703.84
2526.22
16212.4
17858.5
4694.35
35892.8
50685.5
35343.2
24885.5
36337.3
17252
35054.6
66851.7
29251.6
30589.3
12314.9
67658.2
20836.4
46538
653.99
28353.6
800.501
2138.89
11731.6
70064.1
13837.5
20307.3
51062
14651.4
16240.7
618.062
6920.5
23748.7
19193.6
299.109
13540.9
5439.19
1432.38
35958.1
1172.31
19772.8
23262
22951.3
1082.69
16124.9
12367.5
57151.6
10551.9
37246.9
56690.3
31922.8
71106.6
2270.81
61604.3
34536.6
393.169
6767.98
6349.76
1672.66
9160.46
1815.85
38708.9
25057.4
24893.1
18611.4
10915.5
18496.9
28031.2
36098.5
73654
25827.3
14722.3
1327
13842.3
9546.8
70178.1
10042
27391.2
48881.3
25233.6
1190.81
70473
1190.92
1061.49
63503.5
4533.33
6207.46
33740.5
23869.1
23269.7
4440.01
2108.7
32844.6
1216.29
58722.4
11118.1
33410.1
1170.12
65275
30404.5
13806.6
26603.9
56955.8
149.017
27278.9
1084.65
14642
3133.79
33578.5
20215.8
15851.1
7028.75
20954.8
12781
31379.1
57262.7
20191.4
2722.41
18722.5
37976.5
30663.5
24721.4
14425.9
34842
18246.8
3218.28
53509.1
13189.5
45473.2
16144
26913.3
1122.76
30108.2
1355.26
9247.32
12204.1
57469.9
33939.9
4638.33
34586.7
17599.4
33520.7
12791.2
75146.6
2481.34
20754.8
13215.5
36217.6
74614.4
4933.24
81456.5
66432.6
7109.55
61488.5
2805.92
240.941
20788
946.663
29075.9
41909
18448
49578
67207.5
2225.99
38441.8
40074.1
25168.6
22539.9
32548.2
12307.6
16081.3
34324.2
8654.07
2465.46
6894.68
13492.8
57658.9
9356.41
14220
4867.58
27070.7
35750.5
34685.9
13937.9
26938
2219.42
44.026
66603.5
1299.13
46.1319
2772.1
9242.79
6081.22
44650.1
66937.9
33504.1
26372.6
10490.5
54150.4
1562.08
16195.9
64832.9
45019
15380.1
2022.77
70373.6
5551.67
937.993
10076.7
39586
24011.1
64943.8
24339.8
22162
38770.8
663.562
40677.2
10163.5
2137.1
1126.8
1567.51
15547.1
29706.7
20041
50689.2
3294.44
2643.24
20493.6
7150.54
1513.05
61448
56841.8
62073.6
25716.7
36561.4
2656.37
347.072
26783.1
25656.1
15199.2
1125.19
1482.24
32719.1
63044
60573.7
15112.6
21476.2
70781.5
35685.9
11148.5
24608.1
1134.7
13852.2
37588.4
35840.1
10636.9
40666.2
38227.9
37270.9
878.417
1062.28
2476.53
21870.5
11865.7
24386.9
26246.7
524.066
5066.26
33090.5
19987.2
779.031
25632.2
28182.4
41957.1
4664.45
17567.9
19445.4
2624.62
14706.5
33458.7
1202.47
25426.6
1769.56
40493.1
182.028
22223.1
77104.5
776.984
27227.8
32358.7
35121.5
715.635
4922.21
3444.78
14652.9
42021.8
19543.5
18499.3
35206.7
726.551
37402.5
15876.7
31178
13815.2
6942.18
37777.5
25561.2
3353.82
921.615
35961.9
4114.29
8490.05
3839.62
1195.21
22277.4
28759.3
33195.5
19463.4
39279.9
27312.5
2765.3
2758.13
7907.33
25902.7
56441.3
24309
33205.9
63656.9
6566.09
14485.8
43276.8
66488.7
26085
9136.48
3911.87
12045.6
25759.7
9459.01
23809.2
26443.4
43567.6
29014.7
35393.7
20748.6
1879.78
24496.3
26049.5
1776.05
17478.3
13950
6568.4
65687.1
27695.4
20407.8
68486.8
30791.2
34876.1
25104.7
3116.5
70239.4
69320.3
36892.7
1689.65
39863.9
1103.12
35219.9
4142.8
845.672
2382.35
2380.95
44555.6
28906.8
34868.8
42827.3
40916.4
26736.8
41987.1
55250.6
64807.4
65275.4
35471.9
66434.1
1183.76
2307.38
16831.3
30578.3
8933.86
176.385
62580
21801.9
59702.5
17876.4
17701.8
20810.6
3554.25
10212.7
1711.1
37268.8
14041.3
27092.2
39406.6
46408.7
38892.6
729.784
24290.6
1161.31
68229.3
20426.7
702.327
5026.13
33396.2
26089
20413.1
694.262
1137.91
49813.3
55019.2
19490
25232.4
18638.3
13561.4
2078.73
4551.08
9637.41
33410.3
15052.4
35888.1
36242.4
25081.3
31592
7708.91
59339.8
64230.7
23365.2
39004.1
15979.8
34197.7
1703.28
4827.64
81827.2
10918.8
25935.7
16809.8
24284.2
2621.63
10860.5
59021.4
20192.2
39385.2
24552
81011.2
4092.07
32204.3
14288.6
15998.3
36254.9
1126.51
61458.7
77768.9
61140.6
3588.96
35243.6
2049.88
8868.73
8865.36
21132.9
12731.8
23118.3
9521.8
37866.4
2032.76
40358.9
40135.9
41625.5
19099.6
33779.9
18658.4
16487.3
1066.94
78127.7
1121.18
12908
3851.92
19736.1
2377.65
4837.68
24561.5
1341.3
50561.1
2626.78
34719.1
2198.86
2084.58
13356.2
30572.1
18.6944
19295.1
24330.2
10506.2
23549.2
1070.32
12532.9
5321.29
16458.4
30337.5
57932.5
25543.8
39407
13055.9
57110.5
3049.21
36326.6
58959.9
25263.2
713.147
9313.93
3134.82
34367.4
7626.49
51095.3
964.529
12670.9
6247.68
5249.2
34839.3
20454.5
61240.2
37076.6
25774.1
1246.18
26104.9
52812.7
28451.7
594.461
34864.2
27721.6
4561.06
62809
35133.4
26483.7
28649.7
36617.6
77002.8
2535.91
24636.8
2642.49
20.8682
4053.21
27532.8
16523.5
9534.96
28620.4
25767.6
16944.9
39571.3
58113
21457.7
81860.3
1043.81
17422.2
51750.6
2725.36
28226.3
3022.14
76997.1
4696.9
8215.37
18820.1
28887.1
7290.29
29172.9
1089.86
36510.7
1033.48
58572.9
35522.2
20401.8
4273.73
40735.8
5581.9
24323.2
34703.6
88.1214
20057.1
16968.1
14499
16410.5
13663
15230.2
14938.1
6169.43
62992.2
1092.53
25427.8
33045.8
38198.1
1921.98
47700
17703.8
644.006
1116.48
1142.89
46224.7
77260.8
57541
9452.63
74951.4
2782.05
8805.72
30473.8
6084.42
32618.5
81174.2
5977.52
698.12
31874.9
11419.1
81833.5
1256.62
39863
26618.2
12839.7
31697.1
16233
12515.7
3669.39
69330.1
34538.6
3546.07
40679.3
15480.9
4767.99
14569.5
4793.88
16896.4
22572
19823.7
4941.87
6503.66
27816.8
71333.2
33440.1
41075.3
2534.04
43863.7
8015.79
3450.06
33357.6
3408.05
39239.4
5445.35
63004
31455.4
15092.7
13742.9
14533.9
25110.5
684.059
24291.2
67194
6875.85
17377.2
33353.9
35029.7
66480.1
5195.19
13176.9
10455.5
31162
20308.3
42546.5
24703.6
18954
38465.3
36374.8
24915.8
12092.2
37305.1
16928.8
38668.1
13954.9
22059.4
5993.25
2042.96
46869.1
44394.7
22860.8
8039.66
18108.5
35129.9
9953.6
24732.5
584.567
14217
24594
13727.8
65943.4
5106.22
25358.8
51000.8
3125.94
10704.7
34727.6
8003.04
11469.4
33955.9
20558.9
30558.4
78663.2
19907.4
55485.8
24620.3
39568.2
1385.34
36422.1
11604.4
38461
22750.8
67327.5
2204.31
3303.77
1140.48
70528.9
1197.62
59743.5
5912.88
12131.5
2037.25
13601.2
27353.3
5355.99
3786.68
1959
6170.71
16909
710.448
39468
21265.1
45009.7
22392
1086.05
56006
16493.4
29170.9
30096.7
24226.8
1125.58
2370.64
38094.8
705.123
10780.7
27520
34011.6
39859.5
16180.2
20202.2
1175.09
942.754
50431.9
10777.5
928.241
69385.5
5463.06
31090.8
1082.18
26636.6
20011.3
38387
12277.4
2444.04
12298.2
23312.7
35116.4
20109.7
34230.5
33927
2459.03
13276.4
2897.56
1146.34
22324.7
10880.9
9748.04
77032.8
70009.5
24480.5
41420.3
70952
935.989
16910.8
25682.8
15884.3
30537.4
25054.4
16604
36468
13685.4
33747.3
13672.4
647.004
1922.54
25541.2
4916.49
2365.61
39936.7
36051.7
33880.1
31813.3
27630.7
17494.2
40981.2
26228.9
49089.5
26491.5
52273.1
3019.56
897.53
34591.2
34388.6
5404.55
24698.5
20081.5
41578.9
31603.2
13434.3
45897.6
25882
4970.32
16271.9
49187.4
9931.21
34782.4
1421.45
1673.03
27360.9
1684.77
20246.2
40295.9
22531.7
68326.9
25062.3
9302.89
27472.2
29876.9
11874.9
28212.9
42117
16230.5
22848
1733.04
14328.2
31041.9
26449.9
1955.15
66706.5
27539.8
44982
25157.9
4684.92
1643.21
81602.8
79817.6
35536.8
2722.68
6115.95
15292.9
12412
43488.8
23725.8
47020.3
22700.2
986.057
16938.7
25723.4
28262.4
27383.3
26041.2
31071.7
24613.3
6086.78
20860.2
38689.9
59237.1
50791.6
21889.3
46505
27288.5
66609.7
50169.6
45430.5
1375.7
25933.5
1398.82
29530.4
63451.5
21924.5
23082.9
3298.35
10909.6
36876.9
53767.4
11678.3
62215.8
33912.2
32964.9
42459.5
12254.3
41450.1
3232.85
35075.9
71190.4
5416.46
1025.3
15008.9
33017
3173.23
18318.5
7706.93
46119.6
36051.8
770.059
7924.18
1441.35
36611.3
49451.1
63164.3
10753.4
29022
65695.8
50695.6
65169.6
10422.9
25182.9
15092.3
24454.9
36173.7
8000.37
4808.82
31814.2
62348.5
14534.8
18459.2
3323.11
27069.4
63014.4
1070.08
6216.46
52121.3
16487.1
53065.6
13220.6
13450.5
13676.2
31666.5
9099.56
61819
3231.57
8182.3
36011.4
11090.2
65547.3
46413.8
25477.8
6581.52
20120.4
21942.3
30692.8
64032
8912.44
30118.5
41601.6
81286.7
62445.4
16138.8
5301.29
61972.5
6789.03
28122.5
1007.52
6494.49
16630.7
66344.5
53212.3
21836.3
66888.3
13263.1
46729.3
1565.32
49703.2
70784.9
7710.27
32843.7
13166.1
19916.2
78743.7
80884.6
2696.3
24561.6
40395.6
5048.7
26665.9
42895.5
24914.8
33706.2
22799
34182.9
652.41
651.677
630.476
555.825
562.217
235.98
660.884
297.61
659.746
17591.2
1454.16
62870.4
25843.1
2407.41
66393.9
13043.2
41894.5
17213.5
25595.8
45749.3
33911.3
20261.4
20054.2
1616.01
62486.4
2080.47
9335.57
20461.9
38635.6
31891.1
5283.57
14671.1
31175.9
42272.4
44429.1
36986.1
46879.2
24538.4
10494
35393.4
780.499
3235.06
64015.4
47574.7
1848.49
36732
1771
2447.35
2303.04
2129.79
1827.43
29660
36227.5
61385.9
34458.1
20578.4
47030.3
28572.5
1032.45
13575.7
34137.5
58771.3
684.326
1357.48
57346.2
54923.5
1282.15
11264.9
55579.3
3680.79
61928.6
17901.4
20499.4
1053.67
19312.7
23575
3203.69
11047.2
5414.34
36498.5
19998.9
1031.15
2590.93
33655.9
53395.7
46085
24033.6
32137.8
8686.45
35360.1
21164.9
31240.6
3742.95
31985.7
77867.3
21802.7
32616.1
33300.2
39034.2
30421.7
1102.69
49340.7
21181.7
24274.4
32140.9
30674.6
29622.8
35012.8
25387.5
60955.1
26780
71717.7
22815.5
59762.9
16833.6
56326.2
23798.6
69168.7
1881.98
10662.6
14407.6
66076.6
4792.78
69699.3
4552.79
712.047
38816.4
42521.3
31484
10733.7
28314.2
1011.91
21955
31290.2
1010.24
70854.6
28693.4
34049.2
24503.2
66091.7
2848.93
14734.8
15612
1755.59
27430.1
22337.3
68694.4
25927.2
11180.2
63186.8
31684.2
20581.2
65076.7
34791.9
33609.2
981.422
10324.2
25271.4
2625.64
48017.5
15408.7
43548.8
37773.6
29678.8
51767.9
19969.1
447.081
1996.27
1420.83
24168.2
32685.3
35736.7
67664.4
26332.6
43787.2
27136.6
21431.9
57371.1
13257.9
25404.3
30488.6
32752.9
77818.1
68377.5
36341.6
7839.19
34422.3
14818
11119
3524.59
29208.6
22673
16516.2
27739.1
34319
66997.1
21040
50155.1
42372.8
29677.3
32672.1
26997.5
43988.2
34364.3
12884.3
1016.76
52232.4
25045.7
42782.9
34377.9
3854.5
12115.7
15447.4
5930.09
33639.6
41407.6
21927.7
54897.8
69172.2
36373.6
28322.2
1060.68
30954.2
64593.8
4109.61
5134.17
16270.6
10419.1
69519.4
17217.3
1985.73
29162
5363.96
26388.6
66615.1
3581.25
68469.3
2976.15
35771
20308
58782.1
34637.4
8917.43
36861.1
59884.5
55179.1
16663.8
24776.8
19736.9
67887.8
28551
1298.6
8256.26
15126.6
66347.4
61498.3
38226.8
71513.9
6284.74
20012.4
16830.6
17182.7
7858.91
829.244
60438.3
35827.6
2383.39
31291.9
8330.76
31882.5
70187.3
23733.3
31927.6
2776.17
2340.67
1989.7
6460.2
816.643
1494.21
33686.4
3045.77
63663.6
69576.4
49394.8
30914.7
65587
26576
43831.5
35662.1
31399
38831.7
2144.93
21403.2
27941.9
63144.1
3484.06
53398
2573.32
26037.6
2674.06
5638.39
34531
4156.9
26417.6
32628.3
9262.41
890.8
70760
59381.4
6407.91
39490.6
44209.4
23121.6
25922.4
18157
37945.3
40091.6
62243.8
17525.1
36876.1
7893.46
39744.2
28594.9
22807.4
63312.7
30925
14549.1
20053.5
1149.42
33381.3
15095.5
15955.3
5366.55
3160.3
18487
16886.9
26900
13689.5
2885.03
63650.5
66487.9
39720.2
63841.7
69263.4
26246.9
7484.77
42398.9
18606.2
14635.6
7732.51
54165.4
58887.1
79761.7
14812.8
2135.14
3763.02
27074.5
67073.9
1068.16
62256.7
710.922
80750.6
30862.4
2698.42
2827.9
17712.9
4464.38
67763.7
47188.6
69063.5
46856
42421.1
24618.8
30433.4
22494.8
51359.6
11020.5
706.391
39948.2
2463.56
14825.6
20038.4
33121.9
10835.2
66675.5
81787.1
56918.2
27145.2
1133.61
10777.6
68044.9
60012.3
6688.29
19194.3
13817.6
34904.5
25491.4
15676.5
13826.2
26646.6
67830.2
33964.3
34602.2
10385.8
32827.3
70677
3620.85
15264.5
30919.2
37514.9
49698.1
30903
60110.3
10898
10201.2
57997.8
27476.7
5798.42
69848.8
67127
3100.62
26779.1
31383.8
81786.1
11278
25166.1
69407
21863.1
46889.7
13959.1
17473.4
9330.98
29068.9
976.913
34433.2
33147.3
9449.88
2350.71
32246
21466
7839.79
25861
28540.1
9718.32
1792.61
24143.7
4114.5
27378.9
32049.4
1219.54
38812.3
18149.4
21834
8630.58
62656.5
26246.8
3972.83
27943.2
30760.9
25922.6
53739.6
3237.82
4399.9
35839.1
43116.4
28885.7
20621.7
25422.6
62334.6
35623.8
12018.4
62807.8
18152.4
32782.8
6912.04
10495.7
8078.2
51503.7
69325.2
30673.6
26642.4
12032
31394
62075.9
69740.1
5545.53
81865.9
3872.7
27441.7
45869.3
4846.03
74865.4
62461.3
52327.8
483.55
549.899
653.106
652.39
147.56
576.454
347.737
643.297
452.618
560.025
202.008
528.293
651.138
620.108
68499.5
31352.8
48314.4
18119.1
42204.2
5219.01
5010.5
1274.5
26702.6
8546.9
81755.3
79523.8
5554.9
10641.8
31561.8
12071.8
24019.5
66929.4
63126.4
44211.9
62854.4
1365.23
78252.1
30355.5
18039.1
46159.5
34388.7
41376.4
10536.9
65382.9
3929.66
12963.5
2570.35
20943.4
3258.96
81240.9
26949.7
53369.8
65310.9
27261.2
10802.3
28478.1
25707.7