/*--------------------------------*- C++ -*----------------------------------*\
  =========                 |
  \\      /  F ield         | OpenFOAM: The Open Source CFD Toolbox
   \\    /   O peration     | Website:  https://openfoam.org
    \\  /    A nd           | Version:  8
     \\/     M anipulation  |
\*---------------------------------------------------------------------------*/
FoamFile
{
    version     2.0;
    format      ascii;
    class       volScalarField;
    location    "7e-05";
    object      nut;
}
// * * * * * * * * * * * * * * * * * * * * * * * * * * * * * * * * * * * * * //

dimensions      [0 2 -1 0 0 0 0];

internalField   nonuniform List<scalar> 
23640
(
0.00123518
0.00534854
2.25205e-05
0.0325805
0.00510012
0.00145286
0.00430753
0.00220372
0.0067963
0.000482569
0.00944916
0.00567339
0.00288082
0.00521759
0.000893112
0.00127462
0.000833573
0.00448081
0.0096346
0.00599312
0.00630272
4.62637e-06
0.00671275
0.000634226
0.00430787
0.0047787
0.00947229
0.00734033
0.000643633
0.00311242
0.00255015
0.381037
0.00587169
0.00607836
0.00390236
0.000656543
0.000868977
0.00156542
4.48068e-05
0.00107048
0.00565765
0.00642385
0.00492173
0.000138194
0.0747172
0.0058575
0.00120841
0.00531999
0.000500048
0.00187464
2.07093
0.00851469
0.000584583
0.00117712
0.0345829
1.92546e-05
0.00217007
0.00552632
0.00348366
0.0315462
0.00252843
0.00807443
0.0102491
0.0092507
0.00371528
0.00901639
0.00166385
0.00484471
0.000504538
0.00504164
0.00102897
0.0061367
0.00397312
0.00103149
0.00122443
0.0959281
6.2727e-08
0.00283542
0.00960348
0.0106709
0.00577729
0.00379764
0.00406513
0.00417864
0.0036773
0.000121291
0.00820852
3.79363e-05
0.000719408
0.000948898
0.0038612
0.00553093
0.00155648
0.00578177
0.0102866
0.00359677
0.00943065
8.08596e-05
0.003395
0.0011498
0.00227194
0.00118523
0.000243684
0.00129207
0.00350044
0.00144363
0.0036432
0.001067
0.00625927
0.00402766
0.00240955
0.00429163
0.00611127
0.00562359
0.000362102
0.000950738
0.000860912
0.00226583
0.00123721
0.00325756
2.76768e-05
0.396005
9.22746e-05
0.448729
0.00747443
0.000582047
2.70698
0.00210313
0.00149648
0.00565751
0.00812523
0.0036406
0.00291352
0.00850968
0.00150575
1.7319e-05
0.00698344
0.00459408
0.00954149
0.00933546
0.00366867
0.0021538
0.00355903
0.00968452
0.00165432
0.00477077
0.00836049
0.00216667
0.00396266
0.000461099
0.00160354
0.000199942
0.00423542
0.0191287
0.00651788
0.00123898
0.00429416
0.00684036
0.00105155
0.00948248
0.000856327
0.000423473
0.00064971
0.00121073
0.000713807
0.000571112
0.00183552
0.0033858
0.00468626
0.00356803
0.00528399
0.000371557
0.00121917
0.00604734
0.00699813
0.00576175
0.00563256
0.000656293
0.0107144
0.00331646
0.0747177
5.4754e-06
0.00457119
0.00783178
0.000676504
0.00774619
0.0084566
0.00200166
0.0200779
0.00779173
0.00460283
0.00795999
0.286541
0.00416141
0.000780139
0.000553528
0.00345302
0.00146176
4.5333e-06
0.0054563
0.00980718
0.000152512
0.00158278
0.00634476
0.00848945
0.00356334
2.15878e-06
0.00629724
0.000820041
0.00252972
0.00507552
0.00490181
0.0018052
0.00354413
0.000163945
0.00487988
0.0055811
0.00597985
0.00195572
0.000264398
0.00192756
0.0086599
0.00974384
0.00569795
0.000885111
0.00607741
0.00529448
0.400141
0.000256808
0.00386897
0.00146094
0.00089068
0.00646213
0.00493596
0.00672733
0.00395298
0.00115984
0.00485356
0.00398291
0.00341407
0.00241057
6.27518e-05
0.00568526
0.00581776
0.0291736
0.000939741
0.00133503
6.61891e-05
0.0145414
0.000484222
0.0375797
0.00483265
0.00120299
0.00660601
0.00335316
0.00112092
5.07193e-05
0.000942457
0.00747442
0.00540843
0.0505574
0.00223905
0.00287614
0.00609603
0.000537441
0.00489333
0.0086618
0.00299188
0.00335202
0.00833583
0.00138571
0.000443773
1.04677e-05
0.023912
0.00173948
0.00628844
0.000664896
0.382115
0.0105031
0.00608725
0.000507238
0.00032425
0.00726105
0.0100965
0.00269525
0.00734995
0.00238865
0.00134843
0.00563796
0.0100886
0.00419374
0.000918172
0.00503633
0.00180744
0.00949422
0.00367653
0.00550029
0.0010577
0.00505681
0.000767721
0.00340396
0.00925818
0.463965
0.00540627
0.00685847
0.000537802
0.00397296
0.00653677
0.0435206
0.00309136
0.000724395
0.00245503
0.00719894
0.00790831
0.00941869
0.00866472
0.00208114
3.57536e-05
0.0103225
0.0019381
0.000920431
0.00628421
0.00377427
0.00723985
0.00149926
0.00216636
0.000736453
0.00361312
0.000847323
1.17143
0.00665999
0.00234358
0.00776791
0.0084198
0.0050957
0.00534933
4.9157e-06
0.00162065
0.00342313
0.00501865
5.50941e-05
0.0023067
0.00641346
0.340274
0.00518041
0.00445697
0.00780504
0.00562894
0.00601912
0.00654503
0.00553329
0.00202748
0.000884205
0.00224141
0.00385173
0.000550484
0.00152194
0.00206344
0.00930514
0.00885221
0.00841356
0.0081739
0.0091207
0.000711848
0.00502541
0.000319295
0.000463692
0.00116556
0.00993035
0.00331712
0.00178333
0.000195458
0.000731972
0.00940909
0.00748567
0.000866161
0.0241312
0.000184056
0.00363769
0.0088513
0.00463915
0.000207883
0.00475946
0.0028538
0.00443176
0.00146994
0.0010345
0.000531514
0.000743498
0.000525943
0.00880151
0.00101078
8.2046e-07
0.000616568
0.00273748
0.000998248
0.336392
0.00137653
0.00117982
0.00705016
0.000219067
0.000182899
0.00223629
0.000489381
0.00281379
0.0051303
0.0194724
0.000685725
0.000885408
0.00117021
0.00144713
0.0143234
0.00606174
0.00652574
0.00880074
0.00556689
0.00724595
0.00318572
0.00457097
0.00614996
0.0079179
0.0085135
0.00502978
0.00142167
0.000648943
0.00060357
0.367623
0.00011707
0.00801559
0.0014997
0.000647023
0.0920132
0.00243344
0.00613046
0.00875737
0.00542839
0.00198534
0.000727423
0.00237408
0.0148746
0.00865384
0.00777386
0.00032511
0.000789055
0.00882393
0.0019895
0.00732379
0.00115016
0.00973488
0.00117155
332.526
0.00174372
0.00738794
0.00105841
0.00307419
0.00152264
0.00510289
0.00393103
0.00445897
0.000707396
0.0045669
0.00272676
0.00596852
49.8593
0.000849539
0.00328431
0.000888598
2.41911e-06
0.00185596
0.00459563
0.00804938
0.00382308
0.0549373
0.000201977
0.00041669
0.00732535
0.00518121
8.35844
0.00244041
0.0626887
0.00235408
0.000631367
0.00746111
0.000813015
0.00107953
0.000688768
0.00297055
0.000209906
0.00257638
0.00124146
0.00898405
0.0355879
0.00258832
0.000434054
0.00381973
0.00509606
0.00162654
0.0061202
0.000588269
0.00168576
0.00355592
0.011483
0.000601781
0.00507274
0.00377382
0.00335852
0.00280137
0.000635711
0.000910487
0.00280993
0.00644197
0.000904373
0.000519004
0.000217376
0.00595636
0.00666659
0.00590843
0.000739152
0.00563214
0.00987944
0.00143246
0.00836575
541.713
0.000716987
0.00560756
0.00614302
0.00515116
0.00538896
0.00480467
0.0034852
0.00540964
0.00104038
0.00302511
0.000105162
5.99975e-05
0.00321369
0.000602262
0.00287117
0.00099083
0.00670369
0.000896042
0.0037705
0.00378808
0.00500014
0.00114579
0.00493063
0.000734128
0.00143666
0.00390365
0.00393056
0.00276036
0.00493032
2.51449e-05
0.00026151
0.00238947
0.00301653
0.00509965
4.02609e-05
0.00735865
0.00822506
0.000291619
0.00337386
0.00520057
0.00537557
0.00926255
0.00656862
0.00153871
0.00834071
0.000875378
0.000570882
214.908
0.00521204
0.00380569
0.00148617
0.00215567
0.00984762
0.00015206
0.00014011
0.00246598
0.00107676
0.100878
0.00637869
0.0020279
0.00537895
0.0079733
0.000675403
0.00105092
0.00246364
0.00475183
0.00850567
0.0140121
0.00428648
0.00558328
0.00561308
0.00338338
0.0102576
0.00594635
0.00825907
0.00385117
0.00171431
0.00914088
0.00974475
0.00701947
0.00260928
0.00327844
5.4845e-05
0.00214821
0.000678284
0.00661022
0.00493343
0.00326725
0.00163547
0.00574837
0.00384862
0.00137474
0.00233781
0.000145608
0.00474159
0.00110865
0.37123
0.00865628
0.00550874
0.00702851
0.0142692
0.00492069
0.00967806
0.00519554
0.00924166
0.00361634
0.000343907
0.000366274
0.00254033
0.000138079
0.00324175
0.000328304
0.0417396
0.00358801
0.00532602
0.0013589
0.000740983
0.00562682
6.28098e-05
0.00303084
0.00284748
1.09875e-05
0.00638044
0.00924978
0.0078441
0.00142843
0.00571282
0.00122693
0.295468
0.00117359
0.0038209
0.00587399
0.0102428
0.000601358
0.00297335
0.00287751
0.000305703
0.00742895
0.00559119
0.000931514
0.00199683
1.19951e-07
8.8498e-08
0.000873056
0.217918
0.00120522
0.00201996
0.391279
0.00408304
0.0053489
0.0012989
0.0105078
0.0010259
0.0032136
0.00527105
0.00125362
0.0116174
0.0352191
0.00594794
0.0051339
0.000114354
0.00664759
0.00137543
0.0258846
0.00523726
0.00529312
0.370923
0.000617768
4.57364e-06
0.00205772
0.00471733
0.00814888
0.000705293
0.00143553
0.00636467
0.00132283
0.00611906
0.102065
0.010524
0.0058129
0.000410518
0.00148018
0.006987
0.000550096
0.00171067
0.00204801
0.0039026
0.00573513
0.000577012
0.000814969
0.00036277
3.43659e-06
0.000592733
0.00158116
0.00514752
0.00583882
0.00025644
0.00334504
0.00741189
0.00150612
0.000280691
0.00678031
6.94479e-06
0.000599205
0.000882106
0.00407563
0.0264381
0.00655091
0.00189626
0.00957149
0.00170934
0.00110659
0.0059836
1.39329e-06
0.00563215
0.0102535
0.00667668
0.00121639
0.00658134
0.0105592
0.00139825
0.00109721
0.00531218
0.0020575
0.00018696
0.000630474
0.0033693
0.00862453
0.000458073
0.00466245
0.00293329
0.004808
8.76318
0.00907045
0.0012423
0.00817543
0.000843241
0.00210708
0.00345709
0.00314247
0.00491604
0.019884
3.74358e-05
0.0100913
0.00646024
0.00589831
0.0067171
0.00138244
0.00652196
0.0056855
0.00609466
0.000620781
0.00287042
0.00457935
0.0055703
0.0096105
7.57302e-06
0.00234393
0.468009
4.12801e-05
8.24574e-06
9.61851e-05
0.0322004
0.00776424
0.00076537
0.00748895
0.00620559
0.000223812
0.000786757
0.00216486
0.00368748
0.000345324
0.00144273
5.49492e-05
0.0079516
0.000883409
0.000923162
0.00470452
0.00197154
0.00395739
0.00234773
0.00134546
0.011097
0.0052397
0.00830312
0.00688614
0.00329051
0.000513786
0.000772244
0.00495375
0.0174647
0.000105963
0.0049061
0.00430448
5.58583e-06
0.00090873
0.0064763
0.00583913
9.48276e-08
1.0133e-05
0.00740615
2.33404e-05
0.00180005
0.00802797
0.00195159
0.00162679
0.00315006
0.00314816
0.00900893
0.001447
0.0100339
0.00603771
0.00530595
0.00145825
0.00896836
0.00014352
0.00302293
0.00967838
0.00337406
0.0100602
0.00584899
0.00110867
0.00147438
0.0194905
0.00317212
0.000759028
0.00523418
0.00301981
0.0028564
0.00124106
0.00116108
0.0100283
231.42
0.00253878
0.00392504
0.00494565
0.00267758
0.00387358
0.00109904
0.00368273
0.000631428
0.00852399
0.00276552
0.0100362
0.00173598
0.119488
0.000509139
0.0022078
0.00184519
0.00789775
0.00807864
3.88279
0.00075111
0.000710945
0.00239808
0.00142024
0.000516112
0.00242281
0.00287975
0.00951012
0.00258215
0.00139124
0.00339886
0.0101502
0.00796859
0.0248365
0.00141969
3.53635e-05
0.00891476
0.00644694
0.000266023
3.01781e-05
0.00618072
1.03663e-05
0.000898046
0.000173937
0.00102058
0.00955148
2.18342e-06
0.00499042
0.00257239
0.00387876
4.05099e-05
0.00460478
0.000733067
0.0039523
0.00124119
0.00272251
0.000515289
0.000525151
0.00412903
0.00271828
0.00352204
0.00838807
0.00638516
0.00826067
0.0093693
0.000499441
0.00218648
0.00318054
0.000680968
0.000539392
0.000559229
0.000751729
0.00561515
0.000536243
0.0193915
0.00988535
0.00545335
2.95897e-05
0.00409956
0.0587643
0.00453672
0.000660411
0.00268477
0.00385422
0.0124663
0.000151532
0.000429863
6.94681e-05
0.00117503
0.00964424
0.00271278
0.00344901
0.00249022
0.000739429
0.00210777
0.00553789
0.00872491
0.00133605
0.000427847
0.00455083
0.00294809
0.00244282
2.66928e-05
0.00487361
0.00114612
0.0036085
0.00374022
0.0079342
0.00103536
0.00629792
0.000930619
0.0049218
0.0136984
0.00359784
0.00478113
0.00966344
0.00107581
0.00821882
0.00561363
0.00022303
0.00282497
0.00464284
0.00044175
0.00608964
0.00522346
0.000125636
0.00443859
0.00631962
0.00501862
0.00482065
0.00446441
0.000140318
0.00297316
0.00162412
0.00982684
0.00119421
0.0214331
0.00410164
0.00460112
0.00170795
0.00527219
0.0160775
0.00343896
0.00457897
0.001493
0.00289128
0.00106898
0.00940531
0.00782135
0.000860499
0.00791802
0.00300005
0.000884084
1.00093e-05
1.23069e-05
0.00046405
0.00382546
0.00157886
0.0042614
0.000513184
0.00219046
0.00118971
0.00440723
0.00601409
1.39017e-07
0.00831947
0.175633
0.000306139
0.00105422
0.00732748
0.000509614
0.00505742
0.00919053
0.000117823
0.00480308
0.00901773
0.00625095
0.00202362
0.00618184
0.0014923
0.00389328
0.0030956
0.00104244
0.00454219
0.00135885
0.00133077
0.00401487
2.8358e-06
0.00432138
0.00151811
0.00482952
0.00673235
0.00708994
0.130612
0.00350937
0.0052722
0.0054873
0.0828234
0.000710026
0.00460584
0.00363077
0.00779534
0.00335974
6.58576e-07
0.006493
0.00209738
0.000801271
0.000785527
0.0148881
0.00491759
0.000724674
0.000256825
0.00743854
0.00714778
0.000507225
0.00237472
0.000459053
0.000754844
0.00148835
0.00145732
0.00338795
0.0088307
0.00251514
0.00458546
0.00117913
0.00279567
0.00065163
0.00319399
0.00804384
1.59423e-06
0.000850845
0.00184756
0.009809
0.000299905
0.00484506
0.00718096
0.0042366
0.00284593
0.00297607
0.000569593
0.00278259
0.00299083
0.00125194
0.00038838
0.0044434
0.00448945
0.000204965
6.53027e-05
0.0238625
0.000738527
0.00645415
0.00520802
0.000650726
0.00493881
0.00710294
0.00186181
0.00276
0.00257592
0.00254228
0.00325812
0.00490615
0.00551939
0.00859294
1.8673e-06
0.00792856
0.00193771
0.00274387
0.000852391
0.000796498
0.0010413
0.584507
0.00381188
0.00646224
0.0037903
0.0866948
0.0052789
0.000309958
0.000314626
0.00665728
0.327813
0.0010014
0.000271425
0.00337683
2.06152e-06
0.000681406
0.0105321
0.000101412
0.000881413
0.00811901
0.00238163
0.00175733
0.0229204
0.00640284
0.000600308
0.00825664
0.00195425
0.00178444
0.00360387
0.00118023
0.00604916
0.000821005
0.0067798
3.92416e-06
0.00807496
0.00714361
0.00518172
0.000171223
0.00595598
0.00150143
0.00206074
0.00529905
0.00551728
0.000731897
0.00746419
0.0091047
0.00385085
0.000292717
0.00410484
5.67756e-05
0.000591055
0.000836146
0.00372795
0.00528872
0.00656057
0.00443532
0.0011281
0.00846327
0.00825905
0.00062557
0.000736514
0.00760953
0.00171522
0.000700007
0.000573649
0.00267186
0.00287445
0.0032419
0.0011323
0.00339371
0.00461868
0.00560293
0.000755116
264.143
0.00156834
0.00950635
0.00509861
0.00425923
0.00955144
0.00624744
0.000859886
0.00793169
0.000376833
0.000716266
7.17646e-05
0.00869096
0.000480869
0.00635091
0.0064656
0.00575873
0.000990383
0.00485269
0.0025515
0.00943303
0.00291894
0.000211505
0.00534467
0.000273741
0.00353795
0.00673251
0.00876867
0.00628789
0.0127025
0.00550343
0.0637179
0.00526841
0.000466414
0.00551897
0.00899113
0.00333916
1.08183e-05
0.00440893
0.00578013
0.0021529
0.000207947
0.00458511
0.00613143
0.0033734
0.00139076
0.00349202
0.000113621
0.000357546
0.00474353
0.0037427
0.00186272
4.05198e-06
0.00221008
0.000417007
0.00569514
0.00106695
0.000118823
0.00860726
0.00244511
0.000708829
0.00211673
0.0048665
0.0104752
0.00251102
0.00283935
0.00910601
0.00416815
0.00379215
0.00507809
3.25409e-06
0.000705444
0.00413603
9.73934e-05
9.75091e-05
9.07618e-06
3.51388e-05
0.00440437
0.00617683
0.00818503
0.00939705
0.0055245
0.0035872
4.50304e-05
0.00786421
0.00486028
0.00988951
0.000580949
0.00317009
0.00109431
0.0026302
3.57691e-06
0.0061838
0.00554719
0.00107982
0.000737556
0.00346224
0.000120995
0.00904282
0.00891553
0.0043408
0.00165427
0.00469161
0.00557869
0.00228551
3.81948e-06
0.00251771
0.00228021
0.00253856
499.408
0.00152905
0.00211924
0.00396273
0.00861068
0.00902434
0.00634898
0.00387885
0.000277508
0.00808749
0.00966389
0.00413549
0.00654567
0.00118693
0.00464802
0.000511582
0.00146136
0.00581541
0.000803649
0.00211793
0.000738519
0.00198866
0.000405677
0.00683719
0.00469478
0.005833
0.00256426
0.00561069
0.00495524
0.00389298
0.00424474
0.00584098
0.009223
0.00713907
0.000839808
0.000374195
0.00337958
0.00019658
0.00141287
0.00289534
0.00442345
0.00994812
0.000667568
0.00932849
3.27885e-05
0.00602068
0.00229371
0.00379494
0.00611176
2.38106
0.00103957
0.000252715
0.00294102
0.00360639
0.000166097
0.00237589
0.00282177
0.00438348
0.00471849
4.32699e-05
0.273263
0.00350113
0.019907
0.00199911
0.00102409
0.000671523
0.00581808
0.0056661
0.00553279
0.0001671
0.00905974
0.00231933
1.643e-06
0.000556472
0.00496352
0.00245911
0.00238259
0.00729307
0.000986469
0.00206843
0.00468782
0.00748105
0.0109702
0.00829931
0.00514816
0.00144081
0.00138403
0.000883284
0.00204694
0.0048188
0.00725456
0.00928829
0.00649737
0.00587241
0.0064383
0.000562977
9.4109e-05
0.000706198
0.000202359
0.00100241
0.00044547
0.0096852
0.010101
0.000793666
0.006228
0.000774033
0.000427539
0.000324783
0.000379403
0.0056083
0.0015248
0.00547806
0.00384821
0.00474971
0.00855835
0.0074053
0.00536049
0.00973613
0.0013616
0.000242686
0.00155704
0.00507278
0.00165477
0.00709074
0.00283964
0.00514589
0.00221403
0.000160253
0.00187212
1.74024e-06
0.000199892
0.00148512
0.00796049
0.000657627
0.00203104
0.00327819
0.00127697
0.000550603
0.000638093
0.000258734
0.000280787
0.00354906
0.00905884
1.62894e-05
0.00274378
0.0127337
0.00289405
0.00598314
0.00162214
0.00381946
0.00988736
7.65226e-06
0.0684235
0.0097129
0.00481762
4.35713e-05
82.884
0.00256778
0.00494534
0.00217028
0.0042979
0.00532345
0.000704295
0.00802747
0.0061508
0.00542792
0.000171094
0.00448148
0.0222924
0.00196629
0.00555417
0.00863493
0.000562221
0.000128097
0.00241862
0.00341432
0.0108481
0.0113889
0.00076109
0.00445705
0.00231765
0.00152431
0.000862622
0.00498649
0.000567768
0.00690215
0.00145036
0.00199401
0.00435269
0.00500331
0.0105112
0.00526758
0.00260466
0.00582225
0.00296532
0.00247302
0.00537484
0.0166889
0.0904219
0.00761757
0.0309044
0.00064798
0.00715124
0.000806129
0.000556097
0.0058248
0.00361268
0.00416637
0.00315421
0.0103102
1.84985e-06
0.00279873
0.00981819
0.00413867
0.028201
0.00766803
0.00547277
306.76
0.00192503
0.00442436
0.00680435
0.00584455
0.00613419
0.00246425
0.000676251
0.000334267
0.00176257
0.00493598
0.00519669
0.00175785
0.00572017
0.00960122
0.000982301
0.00539042
0.0063266
0.000405793
0.00190509
0.0104304
0.00427627
0.0015842
0.00242605
0.000382873
0.00128104
0.00307418
0.00521039
0.00192646
0.00525591
0.00148747
0.00612292
0.000151397
0.00466829
2.61045
0.018456
0.00106747
0.00031934
0.00028161
0.000810696
0.000536717
0.00380786
0.00463508
0.000218014
0.00616732
0.00275234
0.00869368
0.00114086
0.0016168
0.00166276
2.77426e-05
0.0040176
0.00608273
0.00559434
127.702
0.00485119
0.00192953
0.00114075
0.0208877
0.00373882
0.00554327
0.00867286
0.00148302
0.0073138
0.00349495
0.000504666
0.00755084
0.0227243
0.00640522
0.0074479
0.00114721
0.00105844
0.0105488
0.000517075
0.00234473
0.000840366
0.00878997
0.00468067
0.012036
0.0088371
0.00629468
0.00540876
0.000735573
0.00511051
0.00531628
0.00943949
0.000830329
0.000858615
0.231559
0.00992987
5.5623e-05
0.00131709
0.000380648
0.00197516
0.00263622
0.00763706
0.00349361
3.3524e-05
0.0120379
0.0102569
0.00258975
0.00276519
0.0146912
0.00036776
0.00781652
0.00592584
0.00574089
0.00661815
0.000681989
0.00410356
0.00566642
0.0044033
0.00177034
0.00767834
0.00940556
0.00786154
2.18867e-05
0.00279189
0.00324389
0.006665
0.076037
0.00574246
0.00318397
0.148642
0.00554676
0.00586285
0.00202799
0.0205605
0.00111835
0.00334971
0.00164444
0.00622268
0.0152423
0.000620091
0.00352101
0.000507294
0.000943944
0.00441868
0.00185609
0.00823933
0.000843769
0.00307062
0.00332724
0.00556797
0.00752013
0.253414
0.000623178
0.000191061
0.00107142
0.00806242
0.00522699
0.000951991
0.000168152
0.00265426
0.202079
0.00150777
0.00068681
0.00301132
0.000557563
0.0019947
0.00190838
0.00310691
0.00670099
0.00482621
0.00616032
0.00190163
0.00568934
0.00851965
0.00634146
0.00678097
0.00430234
0.00552531
0.000288468
0.00133343
0.00353662
0.000770323
0.00855641
0.00423134
0.00268125
0.000725626
0.0005463
0.0119943
0.00135092
0.0153436
0.00163833
0.00240314
7.05051e-05
0.00264111
0.00791394
0.00579176
0.00660807
0.00853058
0.00656927
0.0053201
147.485
0.000759385
0.000153988
0.00593265
0.00655106
0.000497612
0.00348467
0.0154912
0.00571815
0.0045753
0.0102292
0.00075017
0.000337133
2.54716e-05
0.00431976
2.05161e-05
0.00488453
0.0098254
0.000153124
0.00969681
0.00112464
0.000633104
0.00105012
0.0090435
0.00504632
0.00385778
0.0053564
0.00808777
0.00488041
7.72797e-05
0.00169617
0.000565888
0.41861
0.00197042
0.004016
0.00946158
0.00393439
0.00284466
0.00394508
0.000186921
0.00466263
22.4669
0.00466349
0.00938355
0.00636953
0.00145665
0.00101451
0.0337636
0.0256204
0.000685088
0.00493871
0.0105484
0.00123345
0.00814962
0.000920382
0.0102577
0.00103405
0.00241929
0.000503228
0.00817716
0.00835548
0.0101209
0.00357451
0.0227809
0.000107115
0.00266761
5.60508e-05
0.00450491
0.0090006
0.00859165
0.00570156
0.00848347
0.00143852
0.00532532
0.00146874
0.00934033
0.00499617
0.000539456
0.00523863
0.00366435
0.000145896
0.00905789
0.000396756
0.00139916
0.00100846
0.00301106
0.00664334
0.00402599
0.00726969
0.00517772
0.00265093
0.00488157
0.00431907
0.0018177
0.000728102
0.00237223
0.193364
2.51817e-05
0.000810192
0.00531139
0.00289284
0.00286469
0.00639924
0.0103164
0.00659144
0.00439864
0.00123585
0.000507613
0.140447
0.00185038
0.00266327
0.00521807
0.00997436
0.00409986
0.00964108
0.00855643
0.000376126
0.00888776
0.00338303
0.00155911
0.00539193
0.0017255
0.00354068
0.00331237
0.000391273
0.000430747
0.00018241
0.000349372
0.000251712
0.000138177
0.000515546
0.000423361
0.000474476
0.00745665
0.00781467
0.000989615
0.000605423
0.0104006
0.00160335
211.105
0.00192795
0.000767772
0.00560693
0.000261879
0.00949326
0.00158777
0.00362961
0.00203051
0.00561903
0.00296017
0.00110342
0.0005307
0.00438083
0.0070454
0.000721263
0.00255317
0.00358315
0.00619631
0.006559
0.000108772
0.0002157
0.00444661
0.00157922
0.00250755
0.00172962
0.0119793
0.0032593
0.00359848
0.00306752
0.000282838
0.00112725
0.00302295
0.00604598
0.00356797
0.00153273
0.00621515
4.28622e-05
0.0521516
0.00502893
0.00172035
0.00242896
0.00304233
0.0492072
0.0078328
0.00491344
0.000145625
0.0039597
0.00100348
0.00795248
0.0123531
0.00305949
0.00544616
0.00315369
0.0025373
0.0441241
0.000125985
0.00121579
0.00557764
0.00238196
0.00448676
0.000802571
0.000950921
0.00173602
0.00099762
0.00509329
5.40779e-05
0.0046559
4.47234e-05
0.00345821
0.0056542
0.00679571
0.00299203
0.0102872
0.00326769
0.0109194
0.0488687
0.00919112
0.0100856
0.00564124
0.000409197
0.00602805
0.00491868
0.000531314
0.000469291
0.00359898
0.00515891
0.00865422
0.00023332
0.000733105
0.00597185
0.0101701
0.00910641
0.00154627
0.00835381
17.8436
0.0012438
0.0053708
0.00419419
0.00246216
0.00802785
0.000662928
0.0467895
0.00184216
0.00133123
0.0102019
0.0208342
0.00406805
0.00369734
0.00473647
5.82993e-08
0.00617619
0.00745915
0.000729934
0.00225806
2.20507e-06
0.00227402
0.000126743
0.00141281
0.00372343
0.00429738
0.000904971
0.00249448
0.00382717
0.00845989
0.00325638
0.000115979
0.00481486
0.000749582
0.00679782
0.0074332
0.000733804
0.00920084
0.00242652
0.00507267
0.00439658
0.0016861
7.44592e-05
0.00326082
4.05499e-05
0.00946504
14.26
0.00314022
0.00380339
0.0048085
0.0042808
0.00398167
0.00183298
0.00576229
0.00381035
0.00619156
0.00200528
0.00198897
0.00502001
0.00644512
0.0044384
0.00184161
0.0105602
0.000971464
0.00230205
0.0010195
0.000231488
0.00283442
1.75872e-05
0.00477664
0.000214368
0.00496251
0.00677808
0.000988621
0.0019755
0.00658552
0.0035975
0.00119499
0.0195914
0.00557255
0.00561062
0.00112928
0.00562876
0.0077928
0.0104476
0.0100351
0.00976278
0.000286678
0.00345253
7.65606e-08
0.0100341
0.0014287
0.00238113
0.00332241
0.00836525
0.00567658
0.00765757
0.00393873
0.00281657
0.00181614
0.00689977
0.00998308
0.00689017
0.00227743
0.00837206
0.000466286
0.00593162
0.00415741
0.00769926
0.00102155
0.00109425
0.00252517
0.00426403
0.00249768
0.00188176
0.00165208
0.00181012
0.00148662
0.00499088
0.000516701
2.47217e-05
0.00228096
0.00480225
0.00426312
0.000397937
0.00788636
0.000387968
0.00868051
0.00272326
0.00288681
0.00997905
0.00652519
0.00448758
0.00986558
0.0185166
0.719527
0.00398716
0.00787403
0.00343887
0.00250594
0.00610298
0.00963685
0.00295666
0.0014168
0.00207938
0.0020723
1.57762e-05
0.00472134
0.000672429
0.00114418
0.0345077
0.02439
0.00304739
0.0103804
0.00340053
0.00325267
0.00842746
0.000871726
0.00799986
0.0171133
0.00437083
0.00305934
0.00261183
0.00400932
0.256008
0.00589475
0.0016258
0.000144749
0.00572272
0.00126703
0.000834002
0.0049741
0.00863464
0.00259504
0.00494502
6.13231
0.000136392
0.00330152
0.00324933
0.00493281
0.0012131
0.00759059
0.00353846
0.00654361
0.00256306
0.00491532
0.0016365
0.0088631
0.000612276
0.00253729
0.00329717
0.0054328
0.00876497
0.00366463
0.00349632
0.000715547
0.000853985
0.0111083
0.00821352
0.00738174
0.00484816
0.00617509
0.00560257
0.00568317
0.00105763
0.00517764
0.000741869
0.00230861
0.00728617
0.00610583
0.150263
0.00663964
0.00496242
4.57507e-06
0.0165338
0.00323874
0.00400429
0.00254827
0.000522803
0.00591994
0.00220502
0.00615053
0.00762706
0.00211902
0.00571493
0.00163011
0.00250432
0.00183519
0.000540958
0.00250439
0.00640771
0.000301233
0.000820866
0.000956082
0.00679538
0.00249839
0.00163745
0.00371935
0.00452824
0.00294954
0.0268332
0.00799079
0.000497013
0.0113922
0.0223073
0.00595439
0.00108491
0.00410836
0.0165045
0.000720583
0.00152022
0.0223509
0.00657131
0.0262312
0.000275176
0.00543364
0.000261233
0.000829024
0.00496389
0.0065787
0.000110209
0.00496825
0.00744319
0.00104584
0.00402305
0.000465339
0.00378219
0.00573348
0.00529437
0.000111625
0.00463769
0.00296232
0.000949793
0.00068415
0.000913734
0.00529164
0.00908546
0.000282102
0.000795469
0.00099102
0.000339502
0.00849088
0.000904151
0.00650162
0.0066745
0.00056422
0.00738776
0.00148579
0.00881126
0.00158251
0.000121354
0.00297295
0.00358637
0.00141996
0.00358646
0.00108807
0.00712895
0.0130389
0.00591997
0.00491924
0.00400915
0.000275452
0.00175013
0.0057872
0.222596
0.00596017
0.00485009
0.000828523
0.00435059
0.00143121
0.00571375
0.00376343
0.0158018
0.0108224
0.0132478
0.000791495
0.00724767
0.00059466
0.000460511
0.00592313
1.82595e-05
0.00353552
0.00502478
0.00102118
0.005598
6.47674e-05
0.000860868
0.00160958
0.000803617
0.0205225
0.00406828
0.00284928
0.000722459
0.0092358
0.0060512
0.00441831
0.014488
0.02837
5.54788e-05
0.0158862
0.000726538
0.00461345
0.00252924
0.00487236
0.00201656
0.00473795
0.00325828
0.00810686
0.00438978
0.00196432
0.00169669
0.0027319
0.000535038
0.00510361
0.00045465
0.0059655
0.0112857
0.00533297
0.000897852
0.0034233
0.00256355
0.00668422
0.00437455
0.00362169
0.0022526
0.0100311
0.000762094
0.00138553
0.000704453
0.00374466
0.00149862
0.00766328
0.00283345
1.76097e-05
0.000475299
0.00509097
0.00275871
0.000282543
0.00617544
0.00191462
0.0017682
0.00428957
0.00570105
0.00630126
0.00322347
2.50916
0.00858833
2.85642e-05
0.00668105
0.00145848
8.4223e-05
0.00517637
0.00031134
0.000335758
0.00990341
0.00496485
0.00777139
0.126277
0.00171377
0.00811875
0.0329713
0.00771508
0.00622711
0.00593926
0.0037476
0.00016913
0.00308101
4.54478e-05
0.00177932
0.00373713
0.00226497
0.00284113
0.00436052
0.00547089
0.00321004
0.0150607
0.00811108
0.00142361
0.00370329
0.00613885
0.00106714
8.58984e-08
0.00870315
0.000869729
7.56653e-08
0.00235848
0.00142359
0.00190287
0.00359327
0.00922436
0.00175533
0.00595544
0.00119174
0.00499125
0.000830079
0.0052232
0.00393786
0.00160453
0.00462105
0.00123856
0.0084754
2.75224e-05
0.000638828
7.30884e-05
0.00304502
0.00206118
0.00653046
0.000854056
0.00945897
0.00704509
0.000379328
0.00972629
0.000453932
0.00130931
0.000696226
0.00117938
0.00202316
0.00355177
0.00123095
0.00720596
0.00257812
0.00178373
0.00531387
0.00385483
0.000833604
0.00870837
0.00306681
0.0090322
0.0102824
0.00185162
0.0020925
0.000127746
0.00489547
0.0059678
0.00565965
0.000609772
0.00110317
0.00502664
0.010215
0.00983896
0.00261564
0.00349977
0.00634799
0.000827663
0.00113365
0.0124648
0.000606818
0.00135953
0.00860681
0.0208152
8.26316e-05
0.00990957
0.00105667
0.00627885
0.000694626
0.000611576
0.00210863
0.00558356
0.00408857
0.0110934
0.00536399
0.000198534
0.0032716
0.00218283
0.00546739
0.000611178
0.000610102
0.00610269
0.00509062
0.00137191
0.00298176
0.00113243
0.00213236
0.0046292
0.000435109
0.00044921
0.00965682
0.00111919
0.00430093
1.33791e-06
0.00480733
0.00541336
0.000381611
0.00871118
0.00846184
0.025594
0.000205334
0.00316464
0.00165145
8.5346e-05
0.00578343
0.00532902
0.0044436
0.0258687
0.000618523
0.00128619
0.00300034
0.0015109
0.00458352
0.00186936
0.00619257
0.00555366
0.00198467
0.000641577
0.00657554
0.00217514
0.00213918
0.00198396
0.000619762
0.00560293
0.00597923
0.000758665
0.0055847
0.0314508
0.000530942
0.000594612
0.00131943
0.00296114
0.00155237
0.00625704
0.0105913
0.000979717
0.00392952
0.00309748
0.00540171
0.00647067
0.00603096
0.0144231
4.24373e-05
0.00280795
0.00133621
0.00570017
0.000466786
0.00543978
0.00607624
0.0373601
0.0181291
0.000799399
0.00783166
0.00125873
0.0107634
0.000584807
0.000720802
0.00181018
0.000122527
0.00265419
0.00848717
0.00183443
0.00549147
0.00777288
0.00570615
0.0239419
0.00640289
0.00250784
0.00732129
0.00773449
0.00253312
0.000127777
0.0266922
0.000818104
0.00295547
0.00284781
0.000277132
0.00129016
0.0013298
0.00101249
0.00593076
0.00226724
0.0280464
0.00495529
0.00866971
0.00290332
0.00509204
0.0073153
0.0081804
0.00068964
0.00689223
0.000445718
0.0020497
0.00488583
0.0055206
0.00355746
1.43978e-06
0.00925964
0.00544832
0.00822986
0.00487843
0.000191489
0.00545045
0.00267404
0.00462902
0.00100075
0.0061024
0.00438948
0.0116244
0.00222733
0.00614815
0.00639205
4.68437e-05
0.00588332
0.000696047
0.00671546
0.00584455
0.000441619
0.0032484
0.000525773
0.00445146
0.00509705
0.000373726
0.000827463
0.00793072
0.00387166
0.00569695
0.00326834
0.00522768
0.004549
0.00155935
0.00306439
5.87947e-05
0.000863691
0.00563012
0.00115139
0.00495576
0.0125103
0.000973521
0.00402158
0.0030202
0.00886377
0.010784
0.0020898
0.0050346
0.00445382
0.000962564
0.00131883
5.20399
0.00403592
0.00590336
0.00174654
0.00572762
0.00233463
0.00393963
0.00553146
0.00694058
0.0199869
0.0110312
1.51147
0.00219933
0.00270343
0.00517881
0.00401449
0.000556345
0.000824444
0.00318002
0.0052661
0.00871227
2.99507e-05
0.00135145
0.000957518
5.72381e-05
0.00331455
0.00350259
0.00514573
0.0105681
0.00151778
0.00605789
0.00125485
0.00269569
0.002992
0.00655619
0.00486797
0.00269998
0.000275387
0.00532148
0.000417472
0.283711
0.000682968