/*--------------------------------*- C++ -*----------------------------------*\
  =========                 |
  \\      /  F ield         | OpenFOAM: The Open Source CFD Toolbox
   \\    /   O peration     | Website:  https://openfoam.org
    \\  /    A nd           | Version:  8
     \\/     M anipulation  |
\*---------------------------------------------------------------------------*/
FoamFile
{
    version     2.0;
    format      ascii;
    class       volScalarField;
    location    "7e-05";
    object      p;
}
// * * * * * * * * * * * * * * * * * * * * * * * * * * * * * * * * * * * * * //

dimensions      [1 -1 -2 0 0 0 0];

internalField   nonuniform List<scalar> 
23640
(
88.9153
217.196
20.7181
92686.5
263.835
1379.74
132.773
565.443
789.902
1650.58
84846.7
272.988
201.003
225.548
2189.78
1302.91
41.5952
55118.3
71955.2
747.363
81414.8
13.8121
80831.6
80254.2
377.579
202.094
6607.98
1067.36
23.6599
333.978
155.124
116262
81560.5
405.424
786.848
2093.36
45.0441
85.1843
26.2829
87438.9
300.104
803.401
245.917
20.6934
93357.4
9090.45
84.63
223.53
1633.38
537.999
105218
57328.1
1871.39
46.582
92685
1603.69
1529.96
316.262
69.1742
94433.2
148.503
9449.1
90555
59892.7
87.3807
59546.3
1016.65
339.445
47784
259.935
89776.6
381.58
72491.4
39.4166
1237.52
114225
1726.24
192.037
72567.7
89986.8
11154.4
2124.37
102.981
107.247
81.7263
1805.23
56973.1
85265.6
74095.5
2202.17
88.2865
330.42
1626.08
72797
56146.7
319.191
61267.6
1797.36
703.122
1596.14
1379.02
46.0301
80206
75.5217
639.637
81.2744
92607.8
41.5178
296.194
666.637
130.268
72697.8
464.136
303.511
4959.46
32.2458
2174.65
119.218
82.9894
348.386
80642.5
95012.5
1789.29
96644.6
2493.52
84752.2
110307
2703.1
1371.93
277.399
1732.74
1291.92
210.355
3816.24
83.1528
85385.9
83951.9
360.249
84426.5
63974.7
702.75
1584.35
71462.6
84907
70840.1
467.484
86520.1
87537.7
91.105
52421.2
557.552
1559.26
116.043
91394.4
1265.08
61.2153
132.783
412.022
980.131
6432.75
2351
1682.21
1996.13
807.625
24.7445
21.8482
91503.7
5947.48
92675.3
1255.08
225.448
4550.39
1153.38
276.89
91558.8
91654.6
277.632
5659.15
90135.1
303.553
93333.2
1680.43
360.96
802.675
25.9727
28414.3
2324.44
1329.2
94679.8
891.655
1104.12
85408.4
94894.2
111.307
32.0065
86925.2
663.34
1882.24
1842.96
4316.63
78533.9
16.7228
95.5205
798.668
74998.5
74.4162
2017.39
81041.2
3207.24
91590.2
239.177
325.892
195.665
74.5581
1771.92
550.696
279.552
712.002
743.108
14.0008
210.099
84792.1
78728.3
271.494
79973.9
435.042
204.371
95780.4
15.5834
88.571
98.149
31.1716
580.532
302.237
400.355
2111.76
89571.6
544.806
91.7067
10881.1
1500.01
5131.62
305.074
815.093
92472
42.4232
269.823
1626.94
90089.4
83572.9
94540.2
203.559
85.3111
91625.3
68.1463
87430.2
14.3838
32.6123
92917.9
92834.8
93220.9
131.317
1220.43
300.009
19.878
244.8
4402.01
746.936
67.8188
53887.9
1343.22
13.6583
81220.5
94629.9
2738.58
411.44
26.0302
95131.5
60157.9
269.637
85301.9
15.8022
27235.9
85707
1161.08
9470.8
772.033
2041.18
161.473
85449
432.931
35.481
521.503
755.514
84191.4
578.808
259.448
43.649
238.423
57.2486
6316.54
60900.2
95335.8
367.368
83108
15.3796
1488.68
6142.64
92977.1
71820.4
31.6599
2274.6
91602.9
72188.5
78098.8
4089.67
1231.95
17.3102
57280.7
1237.42
103.221
400.386
820.174
1029.54
80.1925
2032.67
96477.6
547.886
145.857
114146
27577.5
550.46
819.538
1383.4
650.375
374.978
1659.81
1237.51
583.181
237.902
1741.65
66077
1223.59
95741.4
85696.3
52657
7319.66
277.491
408.156
595.885
92821.5
1831.73
30.9381
118.46
777.427
17.7204
328.887
108.849
90584.1
85059.7
2208.83
82444.7
63626.4
50.3165
515.361
11.4762
11.0977
1380.53
72540.8
305.155
3689.3
65566.6
31.6009
78487.2
2388.21
31.4692
96984
17.3358
545.627
4538.87
71729.1
65053.7
539.349
65754.1
644.372
66.2648
1704.59
17.7008
87097.1
12.8741
50636.6
1869.37
1771.32
1862.94
1531.21
83430.4
95008.1
93.4537
81.4809
6283.68
78.2662
91559.8
1620.39
15.0559
203.31
202.341
93279.8
25.5513
1947.7
998.41
1863.33
90057
92204.5
964.128
86584
278.308
8763.92
235.165
1231.12
540.738
92881.7
51322.5
230.77
1890.57
1745.5
16.3748
96205.2
1865.91
82726.3
641.145
28.9292
93719.2
91255.2
80399.1
2446.84
85866.3
3933.21
2045.72
7887.52
96717.4
1477.45
90694.3
2062.96
1711.71
19893.4
942.398
6991.63
1462.8
80470.2
1375.49
172367
1039.09
91722.7
1835.49
45821.4
73.6567
138.336
1468.48
93082.1
1703.66
1225.05
1107.32
449.382
131893
1987.32
348.198
1968.7
1664.15
1294.21
1126.44
1627.8
366.42
93226
18.2267
95.8431
10033
253.989
133736
2237.63
104223
762.994
21.2726
804.197
1685.41
2177.59
2972.11
81081.3
18.3088
165.827
65.1933
4250.21
104480
177.772
82783.4
519.643
202.416
1551.73
25144.5
4342.23
104.443
312.203
88815.9
16.6096
417.859
367.057
67.4892
1487.96
26.0074
34.6269
207.09
9787.89
99.8723
1697.08
1781.78
79574.8
320.583
435.937
31.109
825.22
86774.5
1905.34
46340.8
173648
2242.85
177.529
469.185
78235.3
1088.76
72187.8
68.9752
220.017
80289.4
2687.75
2043.09
1701
244.176
1832.46
1165.42
34.4889
791.334
857.898
363.982
539.948
230.628
60.1976
238.276
2275.11
72317.7
376.467
374.602
9181.63
295.353
1654.8
14.6308
7398.33
253.434
360.379
5331.21
83798.6
91552.5
424.273
86492.3
408.607
4459.29
66377.3
80357.1
1210.29
76755.5
6509.09
1759.26
166349
244.351
522.618
69.3703
113.959
72367.1
1869.72
1825.31
900.062
70.5368
93683.1
793.306
109.95
1109.07
72737.3
75032.9
684.174
908.326
192.395
76958.6
90196.1
434.369
295.666
816.568
67.6803
58199.5
689.686
3789.55
371.606
1333.75
86394.1
80838
93088.5
2520.8
290.433
1618.5
1740.49
88.4096
353.166
77963.6
343.234
558.081
310.536
419.086
1548.04
1651.1
1784.9
540.109
56.0812
97048
74763.9
268.811
491.13
90320.4
247.243
55631.3
194.375
79063.6
324.226
2100.61
11.4117
853.346
56.5057
315.648
12.9976
93008.9
319.159
204.99
91.3955
2067.01
809.136
1825.29
86633.6
199.779
1600.36
792.518
78687.7
3523.97
64.4974
282.118
1737.05
95851.4
70767.3
87.3866
704.56
95930.4
4355.21
81349.9
214.85
530.961
780.154
7438.79
32.2717
2183.42
14.198
12.2218
155.25
95987.7
72778.8
1203.24
95388.2
607.866
204.255
2139.1
61481.4
50.7869
251.187
300.824
69.2622
88951.3
95027.5
839.901
367.044
21.6215
399.578
62.9725
93133.6
364.452
10408.8
95449.5
22.9903
1688.68
43881.3
188.948
44552.3
34.1504
1916.47
689.023
84498.7
436.828
118857
60527.3
461.513
81223.8
95.3364
573.979
87050.4
1585.29
88306.3
1330.94
73396
85384.5
2961.51
14.1456
12.5483
2109.8
1690.54
137.307
79935.3
2091.74
917.658
9558.11
1324.41
14.533
1195.07
19.607
19.1778
40.3794
527.347
92294.3
669.486
97.1548
89152.6
86003.8
60.5936
406.301
2023.15
278.89
89332.1
741.847
762.291
366.556
89462.7
2653.66
62.7489
32306.4
107.517
58225.4
25.5808
286.172
32685.3
10.8772
542.02
237.868
393.374
135513
4182.8
52.251
55455
88796.2
115.01
69.6561
42086.7
613.506
93020.5
1841.36
86700.7
533.778
67235.6
1167.71
2016.27
659.168
8193.66
461.145
75761.3
214.614
92213.2
791.268
48267
2124.62
1018.03
97888.8
17.0358
2130.33
1882.04
105175
3449.37
36.3305
779.647
468.94
17.527
2000.26
69174.5
332.379
21.0718
84004.6
845.391
89993.2
60.0335
87794.1
847.597
1758
498.804
130.119
1289
95411.5
138.269
72836.8
88044
268.61
1717.97
79163.3
272.038
93355.2
1643.26
1133.86
117.985
61625.6
2182.52
290.468
811.657
1614.26
68589.6
1144.98
2029.46
87731.7
1839.12
117.09
1289.86
42669.9
265.956
4148.9
92.5535
61228.2
450.443
640.795
1371.27
21203.2
17.9346
223.523
61424.8
1185.11
83311.8
574.702
61.4797
65.8936
91480.1
265.179
88611.5
283.607
291.876
201.564
2224.03
236.765
70183.3
168170
861.084
1540.64
841.07
1508.73
1356.36
99.3102
348.108
92655.7
9715.49
196.894
83012.8
90.4829
93734.6
2211.39
2429.76
88501.6
90526.5
83487.3
125783
24.1319
95279
12312.2
88.3705
12.8206
954.816
243.89
61028.6
161.415
2767.9
1396.09
89988.8
1761.33
93076.8
304.405
15.2375
3621.44
291.25
1847.37
88134.7
1155.33
1579.72
848.68
15.1283
79283.7
77876.4
2161.59
238.981
161.626
43600.6
19.7521
1747.18
830.507
877.014
58.3922
3649.17
13.0201
1661.07
1174.44
96796.5
328.453
12488
92388.3
76230.6
88262.7
1477.66
66755.3
339.408
87151.7
15.1331
1998.04
31.7094
812.775
1690.32
115689
60814.2
72684.6
18.4209
514.339
93303.3
2329.44
2343.9
240.42
644.583
89383.8
1744.87
10.835
1819.91
1481.28
88429.3
1779.52
88352.4
45270.4
33.4995
121.457
275.858
84621.8
66.7026
2200.22
128.236
254.452
92318.4
17.7764
172.589
48.625
1060.32
84.4246
75221.3
140.907
277.562
795.675
183.154
95822.9
76.324
190.762
81136.8
90.1897
85209.6
710.254
1853.26
207.497
386.983
2179.15
529.399
89916.2
1728
129.15
304.263
187.36
202.431
72745.9
16.8196
225.118
85436.8
71789.7
125.707
93007.7
541.521
390.603
88738.4
680.041
95640.3
69.4016
670.116
1865.4
1461.44
153.354
48863.2
913.524
2294.84
8541.86
2466.2
31.6601
1682.56
1834.52
17.3905
378.149
95.4238
127.988
83026.9
1639.5
489.725
124.658
510.819
1675
73325.3
95816.2
12.193
84621.5
1230.05
25.6019
142.541
92945.4
61704.6
193.227
67461.6
1144.86
585.55
548.542
97.2369
441.702
225.071
2179.48
545.151
74.1798
154.485
88241.8
68672.5
121.008
96.6287
6496.6
790.401
10035.6
93849.3
1147.2
199.751
278.048
93615.3
84180.5
73096.4
348.241
55114.8
473.917
1793.51
659.971
1088.73
79013.4
48.5758
90320.9
205.161
149.344
14.267
4891.48
25813.2
1833.89
91276.4
12.3013
1691.53
13990.4
10161.8
583.61
3446.74
151.987
129.998
84342.6
192.675
1849.82
759.552
18531
1592.37
2261.3
1297.56
73835.7
91298.4
308.864
968.486
451.647
279.538
1681.62
5339.23
257.571
224.031
56.4362
2210.23
159.669
673.046
16.3805
17.3407
92100
30.6566
640.767
82482.8
42.732
666.567
11662.6
69724.2
737.377
162.185
161.788
491.911
439.126
5220.21
31139.8
1961.57
1687.19
91639.1
199.238
98.6055
24.8725
50.1436
95522.9
374.158
528.581
374.626
93313.7
73826.3
1696.75
1673.61
91792.9
124071
36.7689
15.9387
614.804
1763.44
23.0801
60582.5
1603.8
41.3204
85588.7
784.062
3045.72
92071.8
93697.5
27.7331
15745
1815.72
89.6197
361.755
489.82
417.379
34.8044
23324.3
63899.6
1727.18
83013.8
365.042
1704.05
59717
103.758
1586.94
1143.81
67718.8
73759.3
742.141
12659.4
1095.48
1828.07
1171.54
1714.39
1654.62
1601.88
358.478
74300.8
982.518
352.736
77.8794
71944.7
75818.4
25.1242
36.9167
77599.8
10244.8
17.8449
81908.9
256.776
64720
323.393
852.38
633.331
350.681
180.695
32.7729
165703
650.513
86498.9
235.562
1114.96
86687.1
359.355
38.8473
1698.99
1789.79
84119.4
1718.68
85767.4
12.9442
345.895
639.954
312.811
117.266
195.334
161.731
33207.7
221.57
16.4231
220.966
1828.82
349.916
50896.5
84341
431.227
89544.1
31396.6
93297.7
1111.32
2214.12
186.19
68222.7
353.33
16.2065
160.028
232.779
108.788
14.3895
475.92
275.067
900.761
1246.58
92715.4
1696.97
14.2067
468.463
56404.4
837.515
1682.29
118185
2039.28
758.692
41.9737
1710.05
2280.52
127.832
134.662
125.845
1122.75
86835.2
1154.2
64944.5
12888.3
1676.29
366.678
232.652
13.1965
21.9947
434.659
89955.6
20.7997
1768.13
18.1709
494.027
88473.6
20032.7
86821.7
692.524
326.598
1748.88
53048.5
302.319
82768.2
2163.35
235.707
62.2342
174.666
2081.8
1016.81
279.635
2263.59
1718.21
349.959
1672.91
3379.98
71378.8
115.695
80.9012
526.566
174.614
125.745
2443.79
147.558
124.399
289.519
167493
1377.14
1114.24
747.708
71431.1
84352.6
88038.1
455.966
1775.36
1639.52
78422.2
130.852
274.045
54.8963
649.556
18.104
69.1707
1017.03
34.4702
1832.36
21.7361
87502.1
7635.79
1097.41
345.247
204.309
914.8
296.793
92481.2
455.76
6000.34
204
90204.3
90790.5
26.1817
11.4451
283.462
17.8591
94.2327
768.922
1260.14
82942.9
1683.75
91436.2
1690.52
415.334
125.505
918.566
525.07
121021
89819.9
1962.13
3831.68
1504.18
1838.87
71956.6
197.948
159.455
410.411
30.7365
116850
387.566
92581.8
113.336
69.0289
24.0533
804.419
284.697
1228.27
1621.7
71662.3
89948.5
14.5645
20.78
642.6
832.557
130.568
8601.78
1480.72
5572.43
649.483
4673.68
87718.5
6463.7
240.677
65.6572
1416.76
1781.75
3767.58
190.967
1210.11
7115.16
619.235
10669.5
1025.39
22.7333
877.17
76591.2
55631.6
75109.3
13.7063
86816.8
55613.9
2147.85
839.028
30.3031
1760.09
16.9299
87898.2
299.592
81.1803
166.785
962.453
314.951
85587.4
568.108
3850
91383.8
986.683
844.392
1873.83
733.335
1003.29
1239.15
195.69
307.086
116.425
1599.01
117.044
16.149
1883.8
60.4687
76512.5
16.5888
828.216
263.846
1865.76
670.538
137.893
16.077
14.8278
323.754
79262.1
1999.21
192.237
95071.9
200.762
519.779
244.771
1393.93
49295.2
1620.07
93356.8
95112
198.941
16.8764
129788
176.442
394.905
2108.77
89940.3
281.883
1681.29
1033.21
836.351
242.91
1977.23
1321.38
93799.8
70390.8
215.428
53296.3
63156.9
18.4889
989.147
64104.8
87733.2
90170.1
2149.06
158.131
95464.6
1381.63
1610
211.403
58360.3
83399.2
59.5789
120.225
157.346
198.799
59058.7
176.286
260.259
826.303
90826.9
3342.88
276.068
91049.9
93370.4
91470.4
94793.5
21.2832
1231.09
76201.4
82130.9
451.735
1417.48
139.096
319.742
61871.3
1612.19
3526.85
73376.2
133.606
92506
93729.3
91693.8
169672
96.1125
133.423
609.091
490.029
22441.8
16494.7
26.4041
12.0395
1748.77
638.955
305.913
2886.16
271.757
90843.6
770.954
247.986
508.813
12.1604
1460.53
87000.9
115.584
93.4366
96278.6
91735.9
1609.4
231.029
316.91
1530.01
221.958
81.9795
1027.96
1809.8
86452
102427
92634.3
980.358
2222.5
1955.14
97746.6
764.139
1507.88
604.117
68953.6
357.535
88378.1
68608.3
1972.39
1579.49
92.6839
14.0674
78819.8
606.622
370.104
163537
194.381
954.864
1616.74
93083.8
413.867
353.762
69256.9
626.586
8318.35
74.3019
74529.8
1335.19
92217.5
600.807
738.931
2163.07
680.695
57499.6
2327.23
259.934
1575.27
2677.15
486.532
88764.9
2751.36
58504.9
776.922
1624.05
179.839
695.575
5704.52
24.3306
1609.83
95663.6
56278.9
2793.61
89963.2
72.821
3682.13
182.915
26214
69.9094
1573.86
90972.6
90787.7
155.434
1134.18
90178.5
19.8028
865.839
453.936
329.657
1025.71
23.2303
128.859
642.67
78891.5
1169.33
2767.05
88542.4
2442.18
32.372
1215.1
260.061
817.443
105804
1711.07
92370.8
96038.9
788.953
239.723
496.002
91741.9
68.0602
271.591
1252.59
572.846
90381.8
25.3689
1116.16
2124.47
92622.8
89881.6
1839.64
86269.6
28.4617
227.467
90765
64660.4
824.535
95746.2
23.9084
15.0094
87.6547
6756.32
1166.52
98.6895
66428.6
192.374
96630.5
75.8995
72.8213
252.362
25.9874
124497
119126
243.815
69437
315.643
244.481
90526.6
339.94
3688.16
500.76
748.137
115.731
756.798
16.7673
73294.2
323.234
22.9312
2249.49
439.252
182.491
2212.83
15.2699
88795.7
212.505
97398.8
1662.66
499.292
87254.6
89895.5
77743.3
832.234
79828.5
75525.7
669.462
1043.6
161213
88088.6
18.5388
248.364
79474.8
81656.3
387.399
90477
82438.2
92772.8
89572.5
46.6035
11.7934
1677.74
510.106
2160.24
4768.04
78043
1781.15
81435.3
45.6027
29.01
796.896
66037.1
86086
1112.04
213.058
83733.5
218.294
1751.82
1445.81
83.5892
96081
587.958
88990.2
5889.65
1251.48
44348.2
1414.95
1785.81
343.221
151047
528.533
31274
345.609
82.0561
2146.46
92795.4
92331.3
16.564
309.611
58550.6
765.247
1839
88616.4
46053.6
49212.8
990.974
12.0525
74983.2
17090.6
89139.8
366.546
93210
58196.4
182.329
16.5813
160.174
3514.21
90391.9
1132.58
52945.5
1717.46
245.755
1211.77
6634.62
203.425
1730.16
332.284
1168.34
1951.62
79511.8
1812.93
1491.51
88209.8
274.384
701.512
70362.2
2189.51
1160.74
179.828
303.568
576.049
104.158
31.3967
753.333
94361.3
1800.83
23.366
1036.09
205.849
1157.56
503.154
46792.9
9283.84
499.691
77.5364
12.1131
94000.4
1815.36
251.113
315.953
69892.5
113.5
88652.7
89903.5
11.4529
86999.4
92494.9
77.1078
166.518
86103.4
1081.19
270.198
11.2846
11.0598
15.5636
11.4792
14.6352
17.842
11.3575
10.5212
10.4736
581.179
4226.36
178.26
23.2816
61404
78.2753
160827
151.496
23.8937
391.533
14.6683
76950.2
88.9924
934.286
107.845
753.813
1464.87
41.9866
87341.4
415.559
490.764
1532.46
1077.18
10812.5
488.425
581.075
21.094
1560.71
349.718
76286.8
1242.33
3277.01
91205.5
259.643
332.159
225.657
19.7305
43.1186
228.183
427.866
79.4605
78.5184
88293.5
1958.81
103543
514.441
52626.2
91799.6
316.06
100305
2473.32
334.205
20.88
5330.76
66.4005
76908.9
91015
305.522
242.649
253.448
160.355
92919.6
65764.9
1738.39
326.925
68000.2
546.513
25.3301
79318.2
144.803
1794.19
736.057
1678.33
2267.52
78539.9
400.316
1746.8
731.518
283.695
46664.7
806.835
88159.2
94268.3
79235.3
84601.1
418.064
19.8301
484.437
87817.8
2051.41
2004.64
326.855
201.327
10416.9
16.045
35.0963
465.402
60755.4
7168.73
811.015
70238.5
147399
569.55
4675.48
86459.1
91708
71196.1
31.9589
92998
1868.91
1738.28
61591.8
91525
113.471
90.7138
133.409
12.8926
463.896
839.257
83.8064
126.131
1684.66
82052.9
1803.63
2125.28
6179.61
128.056
2123.49
160.599
1103.77
90300.5
1563.76
1812.51
553.258
2229.85
737.685
1398.07
2110.89
76997.5
133.926
508.111
129.056
79.9525
2746.36
4435.48
78994.7
65882.7
128354
242.835
88922.7
200.76
1332.83
94.663
104.552
304.892
84.373
46144.8
1309.33
54864.7
419.264
817.084
601.874
1496.91
89663.6
1757.72
1243.46
70.554
1670.61
14556.6
1629.74
115.231
1568.97
1092.46
622.002
2198.14
90973.9
650.296
324.796
89841.9
91714.9
275.337
745.983
73724
4704.15
5355.59
89232.1
72101
36792.1
19.74
967.095
13.7509
83405.1
66.6698
1517.52
1346.74
2073.14
1124.15
24563.3
501.276
1540.59
90600.5
1151.54
70898.2
838.115
71470.6
69629.5
1048.48
229.724
133.312
2597.1
56.9078
73.6509
164.245
106.634
1388.95
5315.16
98.9884
103.729
2085.66
670.32
19.1514
2285.32
863.411
343.666
55366.2
86516.5
757.899
1842.32
41507.9
90249.3
1605.2
56161.1
615.937
513.357
71235
91372.1
106526
116.386
5433.97
81968.9
1273.72
64904.6
54160.2
812.681
87.9628
111.228
206.31
1657.96
595.99
22.6834
40.9974
92852.4
92131.8
571.595
87767
1163.48
256.522
8370.29
2220.81
992.63
91125.5
695.257
1575.81
172.522
117.379
96188.1
654.503
85254.2
90152.9
217.165
87.4964
58.058
631.315
73907.2
173.39
630.974
123782
16.8696
81740.6
261.647
78574
1283.77
13766.7
4573.3
322.507
164.65
451.142
1937.29
90504.1
1663.81
165.446
2426.54
333.56
11814.5
337.058
649.015
82.6947
37.3948
91262.4
77474.2
694.726
633.052
439.382
408.308
664.798
1484.66
65389.9
28.8703
965.617
58134.8
494.651
96331.4
583.333
506.679
2266.31
91940.6
750.427
111.416
146.291
16.2919
836.871
404.252
464.63
722.818
139.199
1159.91
83.6365
154.805
971.342
1906.81
169.764
282.12
1528.37
31.2153
31.7185
584.355
231.487
106.962
89894.7
147.764
227.771
92150.9
1508.69
1739.29
87913.3
92760.5
834.084
1987.59
34685
91880.3
2208.2
89859.1
100588
826.493
93881.4
14.5527
257.725
14.8897
52.645
639.697
11046.5
1605.45
511.594
755.568
92651.7
628.653
13.7397
370.338
260.058
177.616
20.2283
505.318
260.03
31.6907
2392.1
27.4467
86221.4
87192.2
3045.35
23.4988
79428.2
79456.7
54740.7
89427.7
397.177
853.373
1824.24
8117.69
73.3645
2471.31
1901.06
21.3438
294.213
316.757
63.7294
375.534
75.9429
468.283
90440.7
225.509
172.676
116.702
62387.9
1637.67
425.499
94391.5
295.723
305.646
38.89
152.333
685.92
9459.88
402.065
91108
95807.3
90541.2
25.3719
21732.7
20.4958
18.1382
775.673
1895.38
306.814
391.522
1804.21
262.984
88538.9
56.0084
1212.88
26.4476
96584.4
113.118
1530.26
22.6049
11828.4
365.933
159.664
91201.5
95225.1
20.9074
90882.5
29.1756
153.227
157.673
416.593
1276.34
190.319
305.371
90098.3
124.603
1805.39
8879.32
1105.31
63.5349
246.078
6813.64
376.09
87992.1
770.528
2081.04
84732.6
157.317
585.561
367.195
1238.23
84719.2
84374.6
23.8091
57129.2
24.4552
92.8366
90049.8
1109.59
1572.64
1916.48
1745.74
238.332
830.442
78137
17737.6
96.718
948.563
379.32
408.516
19329.9
261.769
110079
2117.93
1639.6
677.879
94.8823
20.6254
216.577
17.0204
1823.89
72074.9
169.697
751.953
93845.2
88.5375
71855.4
92447.8
83334.9
481.247
285.503
481.233
1774.95
62942.8
1906.4
105.292
364.33
843.372
37436.4
521.834
738.796
256.114
91285.8
74207.6
1828.05
578.719
344.835
68.7561
17.5979
12635.7
29.0358
16.2019
134.067
649.061
325.041
1226.87
11474.8
1162.37
392.656
776.878
1236.99
31.7211
500.265
5196.64
1633.48
174.464
88.0917
7936.52
2157.25
26.4198
2398.38
97430.1
72456.4
918.364
62435.8
90016.4
502.685
12.4926
72716
1018.17
87.0819
20.0073
66.8688
84882.5
70768.9
74319.9
690.971
170.647
101.549
271.519
378.039
30.6242
3129.97
3107.13
47839.2
85838.4
1367.46
123.006
17.6476
77241.9
287.416
788.537
22.3147
64.77
904.896
45432.3
53489.4
793.982
939.433
20527
1747.91
680.84
90123.8
21.1305
973.199
73444.7
92802.6
1805.63
73038.9
2186.51
69428.5
17.5624
24.2155
111.802
224.079
128.862
91529.1
236.356
16.6892
263.528
1041.61
165.868
15.3582
1627.35
439.115
732.647
170.44
84729.2
1323.06
119.769
159.432
1777.06
15.6807
85402.5
72.987
826.297
19.206
600.803
13685.2
11.0197
82496.4
77620.5
92109
16.0483
249.229
128.083
1831.42
422.509
246.177
549.921
92075.3
13.5169
1468.73
758.878
1244.58
388.301
426.853
68926.9
225.498
130.032
25.2955
696.706
182.391
562.456
159.109
23.6122
349.752
477.205
2176
222.337
92428.3
2156.67
71.4015
73.1009
397.642
66631.2
49069.1
87725.2
1637.96
36917.3
274.465
709.174
64183.9
712.135
90323.8
1562.86
198.558
620.501
265.596
86568
178.046
343.888
92787.2
91211.4
1791.72
90487.5
52.81
87724.7
1706.96
37.6326
1098.01
2489.72
298.155
34829.3
95161.7
172.986
4368.45
304.457
92278.4
415.7
165.659
20558.9
15093.6
56730.5
71.59
92921.8
25.6005
810.089
203.998
15.3787
65.54
65.2223
3279.93
468.062
1288.92
93255.1
1092.81
82967.6
52129
47116.4
2385.57
27500.5
2280.27
696.559
16.1062
103.537
194.491
74309.9
378.143
20.9289
33336.4
92442.4
2530.14
379.325
1926.27
227.644
179.313
567.128
59.1914
411.206
158.075
92279.6
1527.9
769.635
297.277
26.6435
241.167
21.0955
981.559
86335.4
11.1383
261.734
1769.11
77130.2
175.904
10.9247
28.07
1483.92
2141.73
432.253
1156.04
266.949
350.102
74.854
231.297
4139.54
2178.53
779.276
1703.75
522.339
88956.7
1502.89
388.198
2473.21
18957.5
90560.5
1664.51
371.451
520.206
37.1775
270.193
122209
111.334
392.709
82099.1
200.74
128.149
111.996
44732.7
88655.4
93388.4
87893.6
100394
177.609
63947.6
734.809
627.835
3532.16
23.9466
4191.85
13923.7
2989.11
85695.8
1912.36
57.9248
2428.48
415.914
943.228
677.144
89873.6
672.001
490.801
50.8668
1141.21
1618.64
278.698
86434.2
840.028
61961.4
502.252
18.0131
96384.5
27.8661
86038.2
129.489
160.779
90.6539
186.525
542.009
53.0425
732.75
119.477
1799.58
91.7284
92.9094
364.371
274.057
11.5414
86566.5
208.805
348.089
84173.1
21.6148
139.168
277.475
380.943
74798.4
3135.99
514.417
2126.99
91429.7
12931.1
116.489
435.69
2272.8
2091.9
21.7647
83.5515
80.949
428.951
363.126
6675.22
49.0481
141.053
404.043
209.636
76847.2
302.512
51819.5
411.158
90391.7
23.2609
1489.92
56486.3
2251.76
18.9213
74605
83662.9
216.218
41527.3
1744.34
1831.62
91136.5
438.902
9188.33
60.5812
1155.28
62.874
10.8769
199.367
1713.28
158.835
96.8461
91063.9
85382.2
1410.38
838.725
52240.4
247.694
166387
24.6176
1058.72
561.518
69.7803
92435.7
97.8487
10990.9
245.036
452.742
999.151
1647.75
70.3151
198.904
22.4224
1740.69
17.5925
3352.82
92225.8
90611.1
132.247
93259.4
251.717
1831.01
405.95
17.6261
259.288
2041.03
414.629
217.412
152.298
267.348
79797.2
89711.5
993.944
23.2536
86708.9
296.718
1883.34
38.3743
969.703
386.418
14.1668
24.7691
21.1192
93014.2
9960.65
1148.09
645.753
98825
78.6035
1728.87
336.489
251.79
1795.67
100078
278.047
12.8965
78017.8
2095.49
149044
28.4748
70621.7
68555
1689.45
516.86
1810.28
78903.6
173.519
4064.35
92075.7
144.04
93017.7
90387.8
236.28
91869.5
244.391
83545.1
601.217
1126.73
219.822
343.425
1456.94
23034.9
69227
1243.88
108.274
93327.7
361.307
93.4663
231.582
137.188
92487.8
265.278
43710.5
77197.4
658.63
682.343
508.444
2182.79
15.4183
88008.6
10731.2
341.203
87848.2
1851.92
1849.84
34740.7
270.66
354.265
1773.19
72814.7
86539.9
505.179
91581.3
136.237
811.797
3251.48
61389.8
522.532
574.051
1652.13
2033.16
335.543
3319.09
318.658
51.7074
675.727
2017.31
87353.3
76.8667
91756.2
383.465
97.2716
513.239
11.1106
1656.54
215.924
580.567
11272
261.099
373.656
65689.2
89.3955
111.757
61790.7
552.378
603.481
1801.1
1711.7
92440.5
95367.3
412.382
43684.1
2249.02
909.864
44.886
534.634
1831.18
1884.15
1454.4
6251.22
61.2082
157.959
18.3537
16848.2
23.5312
54951.3
292.68
806.905
91.4898
78798
2001.25
281.212
150.701
49.558
328.593
1593.39
15.1248
68957.4
214.93
1207.29
316.708
26.7455
36971.9
593.178
91406.2
71748.2
1145.62
23.7693
70.4245
753.848
15.2386
552.601
82783.3
1604.96
506.977
1862.91
88520
30.2244
16.4656
93169.2
571.467
22.7158
5763.16
292.426
634.568
20.7075
1767.18
76597.5
2025.3
90565.3
66.0218
91682.2
1371.6
1797.05
84889.6
714.152
92153.6
2542.59
2733.27
76.6219
25.517
257.899
112.438
1727.96
16806
97606.1
88228.6
1060.74
21298.5
16.0364
76250.3
232.779
643.484
1092.48
2237.97
1719.3
1205.68
131.855
639.693
314.499
12.2615
62.6608
373.26
243.943
72.8614
2149.48
3828.49
830.498
1188.83
65775.1
385.925
793.878
386.312
1228
84470.7
10009.8
79.4902
22.1369
1999.61
675.185
245.657
86722.2
2243.15
694.053
325.048
658.266
93932.6
90224.3
255.864
594.725
577.658
377.217
718.838
46.6718
36.1442
92217.6
37.259
1222.16
55550.9
1177.22
3886.87
88789.9
508.803
74933.9
1965.02
133.644
49407.2
5148.32
787.528
89780.7
42.5912
91562.6
91588
82954.9
86.8112
96008.3
1627.13
1191.7
603.852
214.963
69.953
114816
98327.6
624.876
112.542
394.777
776.308
91076
5816.77
1787.4
93382.1
68519
21.231
1898.74
90559.8
60228.1
433.75
91630.9
2004.04
540.873
295.924
86759.8
867.864
897.82
93045.4
257.82
1529.55
90628.9
12081.2
1013.25
92795
58.6699
85832.9
26.5867
1998.33
3052.55
1705.33
549.437
154.788
545.431
428.397
1183.57
345.393
50707.2
882.966
587.654
71797.2
124.284
1154.94
96.3604
1625.49
4927.18
248.485
25.0649
1793.19
1893.66
82.8502
1163.01
415.487
1296.18
953.114
12.4352
76.9141
44.0522
93101.9
1748.26
2985.19
700.065
52362.1
28913
95236.1
980.365
1583.43
618.684
983.096
1801.77
2106.06
388.176
211.191
69690.6
37312.3
125.264
2491.55
164.198
90540.6
43176
20.1567
333.878
5943.83
1780.14
94786.2
951.88
441.098
103.519
269.439
93.3429
34086
155.668
1596.56
64616
904.927
1987.06
56720.5
2228.28
345.212
1690.06
1184.57
79318.6
97735.8
491.773
65843.6
98137.8
101061
37206
78601.3
265.137
43949.7
362.619
1642.56
12.9333
329.575
2119.23
2075.74
672.412
212.179
25127.7
461.162
1051.33
61.3035
59049.4
24173.2
398.326
91900.4
153.414
85109.2
95547.9
112138
107.901
1949.75
11652.5
214.317
216.439
748.96
90896.2
1658.08
87681.9
76975.5
10.3034
11.9329
12.6679
11.0397
11.5635
19.5378
10.5054
15.797
11.3134
556.601
41.1355
40320.9
386.836
89.3667
36534
713.46
1187.81
589.593
2028.37
3967.11
55441.1
1139.18
1790.86
32.6009
2917.47
87.0886
2286.55
1771.54
1947.2
1762.67
270.674
1700.14
74828
1179.29
1625.56
2195.95
4463.35
244.333
2180.08
606.322
12.6658
169.374
41992.1
93085.8
40.6443
466.646
73.9986
118.336
109.205
94.6384
74.294
59357.7
74302.3
47889.4
72125.5
2060.59
52999.7
379.739
19.71
728.681
802.153
902.595
11.1709
31.6018
1545.34
52292.2
23.8088
618.854
19113.1
119.304
3211.74
230.624
793.071
20.4444
2456.06
560.012
157.88
85683.5
281.272
1766.45
1701.41
21.3447
101.163
401.639
60291
92917.2
87749.5
304.477
1602.16
1167.43
350.854
519.106
101.256
1390.86
95074.8
90659.7
549.17
357.277
74070.1
61009.4
19.1396
93215.4
70267.3
254.14
1122.29
91490
74355.2
1430.11
516.49
2570.99
68198.9
4199.07
1047.79
2291.65
1864.41
1334.95
87781.9
6935.17
55.5112
86924.9
511.629
2028.93
247.145
8043.17
151.136
10.7583
891.844
1369.97
2085.11
544
91016.8
22.6012
79170.7
79093.7
18.85
4948.2
75114.4
65004.8
85171.8
3517.3
122.66
714.629
752.165
33.9202
272.953
1593.88
6064.07
1578.96
89160.1
43161.9
355.87
243.443
826.651
71604.9
1524.92
26.1668
91.3197
619.852
2964.55
67912.4
751.063
979.865
456.965
1578.26
34581.8
397.02
18.867
56.315
25.6595
90095.1
79164.4
532.594
5047.99
81291.5
3057.91
82413.1
583.397
50991.7
482.336
86645.4
2705.12
1646.34
94861.1
30117.7
94128.1
390.903
652.591
775.976
119.059
87.7915
355.708
1135.77
128.29
858.347
1538.22
2224.76
1102.94
11957.8
70994.4
92400.5
1765.17
90800.8
93743.3
92096.1
687.872
27.9629
7708.92
84314.5
567.393
451.168
115.023
484.947
186.891
293.609
593.736
67712.1
82616.2
48628.8
5664.99
407.051
257.79
15.709
91629
31158.5
118.318
265.571
69673.4
565.756
8600.36
79950.3
47.6143
235.443
280.953
209.918
782.55
174.876
4204.49
152.174
92099.3
1062.9
1746.95
92214
1704.73
69045.7
93686.2
94262.5
1653.25
91344.9
258.704
21480.4
82394.1
39.1904
1546.17
79964.8
25185.1
30765.5
1946.52
18428.6
394.102
1778.54
204.69
154.129
425.565
14.3557
1474.03
408.76
109.179
319.289
2114.98
311.703
4604.61
2118.8
547.792
113.372
62.7108
85.0802
278.745
21.5392
56.2841
408.464
148.586
2269.69
8599.5
905.634
1313.71
27245.8
409.063
860.574
92261.7
91699
2417.05
64.5544
1395.16
1488.78
45848.6
100.097
1437.25
129.902
1780.45
71.757
1684.62
1804.23
186.646
1794.66
1920.57
581.676
14.647
95747
56778.1
343.629
2527.71
1143.08
1763.58
90650.1
1041.84
74227
2214.74
3460.22
296.519
389.861
75.0411
98330
1757.36
70511.8
1812.61
632.982
82287.8
1815.43
26.6633
92031.7
631.811
80538
232.95
93.1248
1620.1
336.754
82845.2
112.857
69.3617
39656.7
4509.25
2016.03
27653.7
3297.44
1584.71
381.098
1069.79
363.805
791.123
917.37
58572.9
52962.7
96704.3
90500.2
97.9174
191.203
410.707
13209
19.9294
29498
15.1888
101981
1551.97
131.281
73.3643
1131.75
232.013
3945.99
68534.3
21945.8
499.722
49918.1
89032.2
386.469
1666.97
1765.53
606.161
16.7302
2145.46
111.566
634.228
84605.8
78796.8
1692.51
23728.8
125398
2151.4
295.986
16.2611
731.894
10898.6
46261.1
338.282
763.495
389.194
565.719
1663.79
91051.3
376.441
80965.5
2451.58
727.342
972.454
108.123
352.34
7977.82
116.26
1852.01
80457.4
2221.14
552.969
1660.87
55992.6
95.1078
91.403
1547.44
1181.45
276.625
3136.97
3705.63
146.371
77504.8
531.744
125928
115.849
85595
11215.5
2055
1485.24
358.026
80287.5
1619.53
74663.1
18.2816
850.655
1163.26
851.278
100.182
1800.24
803.292
431.366
83057.1
74889.5
687.412
77.2399
345.199
190.506
836.955
78180.1
28.0382
1412.35
79605.4
1821.35
1735.84
38309.9
80194.6
125.421
90981.1
1587.83
92178.8
2382.07
89.1055
231.131
1765.64
70365.2
267.108
1531.06
1816.91
2838.91
1342.29
607.051
48524
88324.2
376.965
364.667
680.715
922.225
49298.1
8396.37
74861.5
241.181
112.814
1702.79
35283.2
6218.55
209.059
165567
115.496
1758.75
93319.2
252.866
15304
35215.2
1399.62
14.6756
11.5875
11.9465
10.5396
18.5395
10.842
16.2521
10.2582
14.3802
11.1615
15.4231
12.1263
11.0117
12.6404
9241.29
1833.12
2034.59
808.082
980.174
264.198
244.804
25.8724
80375
451.271
124719
96238.4
3575.38
76137.4
307.132
131.802
1816.56
9754.72
1955.36
64436.4
41217.6
47.4181
98349.3
1649.07
228.92
58911.8
1548.97
72630.3
110.341
36927.7
161.033
85696.8
66.9502