/*--------------------------------*- C++ -*----------------------------------*\
  =========                 |
  \\      /  F ield         | OpenFOAM: The Open Source CFD Toolbox
   \\    /   O peration     | Website:  https://openfoam.org
    \\  /    A nd           | Version:  8
     \\/     M anipulation  |
\*---------------------------------------------------------------------------*/
FoamFile
{
    version     2.0;
    format      ascii;
    class       volScalarField;
    location    "7e-05";
    object      rho;
}
// * * * * * * * * * * * * * * * * * * * * * * * * * * * * * * * * * * * * * //

dimensions      [1 -3 0 0 0 0 0];

internalField   nonuniform List<scalar> 
23640
(
0.000240434
0.000644712
1.95718e-05
0.078017
0.000746746
0.00177624
0.000459203
0.00114411
0.00174492
0.00272587
0.075125
0.000808934
0.000612474
0.000662601
0.00254014
0.00164098
0.000123373
0.0538926
0.066131
0.00177718
0.0728734
1.7003e-05
0.0724555
0.0717936
0.000990935
0.000637597
0.0102031
0.00237267
8.03388e-05
0.000855993
0.00050434
0.0939819
0.0729764
0.00110348
0.00181237
0.00241166
0.000131801
0.000293881
4.44117e-05
0.0768869
0.000867324
0.00177919
0.000708414
3.83211e-05
0.0772058
0.0127689
0.000240918
0.000661897
0.00273581
0.0010414
0.0850984
0.0554942
0.00222275
0.000159329
0.0779682
0.00170198
0.00254842
0.000865288
0.000276725
0.0777981
0.000488278
0.0134435
0.0784651
0.0574189
0.000330706
0.0571662
0.00130926
0.000914094
0.0477426
0.000738977
0.0783053
0.00105179
0.0666262
0.000129844
0.00156546
0.0923548
0.00183365
0.000590597
0.0665848
0.0781918
0.015004
0.00396192
0.000369387
0.000380028
0.000314781
0.0022742
0.0552525
0.0753035
0.0673712
0.00253627
0.000334387
0.000892657
0.00279744
0.0668084
0.0546043
0.000871255
0.0584167
0.00187246
0.00150582
0.00262517
0.00275157
0.00015785
0.0715232
0.000226233
0.0015302
0.000279236
0.0789311
0.000145002
0.000866748
0.0014822
0.000442166
0.0667706
0.00122814
0.000870679
0.00725462
0.000110493
0.00249685
0.00040915
0.000223243
0.000890605
0.0717497
0.0770918
0.00186289
0.078275
0.00463953
0.0750058
0.0891972
0.00464405
0.00180922
0.000808848
0.00347069
0.00266323
0.000634813
0.00653285
0.000257742
0.0753556
0.0745867
0.000953909
0.0748451
0.0604052
0.00152617
0.0025463
0.0658715
0.0751573
0.0652052
0.00116309
0.0762473
0.0769672
0.00034193
0.0509947
0.00101654
0.00179486
0.000400079
0.0784135
0.00268845
0.000206556
0.000459093
0.00112309
0.00128767
0.0100095
0.00261971
0.00211007
0.00231718
0.00112822
8.89664e-05
7.9327e-05
0.07901
0.00894775
0.0789103
0.00260854
0.000669928
0.00676036
0.00151895
0.000822112
0.0788735
0.0789528
0.000811651
0.0083304
0.0782683
0.000796438
0.0772308
0.00183352
0.000956473
0.00190134
8.47497e-05
0.0319994
0.0044106
0.00254899
0.0779557
0.00206558
0.00225822
0.0755337
0.0770924
0.000387446
0.000110503
0.0765271
0.0015729
0.00239786
0.00221301
0.00704591
0.0707813
3.23402e-05
0.000313842
0.00176819
0.0683029
0.00029292
0.00237735
0.0726161
0.00522113
0.0790304
0.000692782
0.000890861
0.000516431
0.00029317
0.00194442
0.00132073
0.000783273
0.0017074
0.00121835
3.32653e-05
0.000558155
0.0751034
0.0709286
0.000804021
0.0716982
0.00116755
0.00064549
0.0776218
3.48904e-05
0.000335246
0.000268048
0.000108559
0.00145538
0.000840049
0.00109627
0.00394271
0.0781661
0.00131144
0.000342684
0.0143954
0.00294749
0.00706326
0.000879125
0.00179934
0.0781512
0.000142677
0.000562408
0.00178733
0.0781143
0.0741744
0.0777778
0.000641218
0.000243872
0.0788892
0.000273269
0.0768646
1.74525e-05
0.000114846
0.0786539
0.0787392
0.0775569
0.000439584
0.00251211
0.000874587
6.37114e-05
0.000708331
0.00734415
0.00152017
0.000272167
0.0529203
0.00257145
5.06599e-05
0.0720509
0.0779445
0.00470021
0.00111885
8.45094e-05
0.077176
0.0575814
0.000804931
0.0753852
4.60308e-05
0.0309563
0.0756757
0.0019723
0.0133759
0.00134671
0.00232648
0.000518988
0.0754957
0.00109499
0.000113232
0.00126879
0.00117597
0.0746887
0.00131225
0.000775803
0.000142742
0.000723734
0.000149264
0.00936897
0.0581503
0.0772804
0.000972648
0.0740021
5.84073e-05
0.0029889
0.00942451
0.077718
0.0661141
0.000111242
0.00408756
0.0788939
0.066324
0.0704922
0.00690408
0.0024371
1.70375e-05
0.0554559
0.00176037
0.00024093
0.00109365
0.00187573
0.00230724
0.000250434
0.00369854
0.0789553
0.00126318
0.00030508
0.0922826
0.0311862
0.0011389
0.00193146
0.00290883
0.00149541
0.000988611
0.00190077
0.00245872
0.00129651
0.000724051
0.00205067
0.0619047
0.00261444
0.0776392
0.0757682
0.0518607
0.0109315
0.000817753
0.00110596
0.0014888
0.0787948
0.00338376
0.000112238
0.000407079
0.0018016
6.82949e-05
0.000649853
0.000367041
0.0785079
0.0752923
0.00423881
0.073536
0.0601539
0.000131484
0.00125835
3.91291e-05
4.23679e-05
0.00257102
0.0665546
0.000800045
0.00589634
0.0605179
0.000110931
0.0707646
0.0044882
0.00011383
0.0789995
2.51447e-05
0.00126146
0.00752733
0.0660262
0.0600499
0.00129217
0.0617169
0.0014734
0.000215528
0.00263256
6.66174e-05
0.0766714
4.59759e-05
0.0504632
0.00222304
0.00188941
0.00231773
0.00292991
0.0741477
0.0771211
0.000297775
0.000235424
0.0096083
0.000142776
0.0790608
0.00244899
5.61821e-05
0.000616708
0.000639278
0.0782236
8.67994e-05
0.00258224
0.0013702
0.00234392
0.0781189
0.0789485
0.00206565
0.0762814
0.000815835
0.0125722
0.000688186
0.0024007
0.00138397
0.0786957
0.0509681
0.000706356
0.00226538
0.00303141
6.07735e-05
0.0779589
0.00192874
0.0737532
0.000989703
8.83665e-05
0.0770962
0.0788819
0.0721856
0.00460763
0.0758894
0.00622756
0.00230273
0.0110461
0.0788984
0.00308231
0.0785935
0.00219074
0.00278808
0.0243237
0.00145757
0.0104952
0.00266695
0.0721177
0.00257023
0.139304
0.00137079
0.078902
0.00230613
0.0467164
0.000237298
0.000470388
0.00296787
0.0786524
0.00253721
0.00241314
0.00195302
0.00119768
0.106594
0.00246547
0.000888987
0.00256756
0.0016715
0.00252988
0.00227318
0.0033209
0.000951824
0.0774983
3.45975e-05
0.000184639
0.0139774
0.000724321
0.10809
0.00404069
0.0843793
0.00135967
6.57477e-05
0.00190372
0.00279165
0.00252588
0.00487172
0.0726425
3.98019e-05
0.000528637
0.000205693
0.0071118
0.0846273
0.000550028
0.0735801
0.00123018
0.000639973
0.00275769
0.0288027
0.00659328
0.000340753
0.000857019
0.0775441
6.12546e-05
0.00106891
0.000967701
0.000271038
0.00288435
9.32233e-05
0.000110591
0.000623662
0.0136182
0.000234482
0.00229145
0.00226526
0.0715784
0.00092045
0.00116751
0.000106715
0.00181707
0.0763679
0.00231116
0.0471143
0.140339
0.00243565
0.000556126
0.00123818
0.0706604
0.00225543
0.0663742
0.000276035
0.000683275
0.0719619
0.00472117
0.00218593
0.0018468
0.000707903
0.00227326
0.00242793
0.000124002
0.00172482
0.00111836
0.000957992
0.0012645
0.000706494
0.000191627
0.000693122
0.0024825
0.0662347
0.000984506
0.000983102
0.012512
0.000823866
0.00178272
3.29794e-05
0.0105023
0.000710602
0.000946583
0.00714596
0.0744764
0.0788644
0.00059127
0.0763124
0.00105504
0.00721325
0.0621565
0.0721512
0.00167974
0.0695729
0.00939242
0.00238772
0.134441
0.000704952
0.00123125
0.000245008
0.000391798
0.0664304
0.00196797
0.00234782
0.00196343
0.000205916
0.0770232
0.00173823
0.000371784
0.00228356
0.0667286
0.0679473
0.000945629
0.00197576
0.000612024
0.0697185
0.0781698
0.00109844
0.000854874
0.00179619
0.000271893
0.0561599
0.00167097
0.00650905
0.000960952
0.00256326
0.0761421
0.0723807
0.0786087
0.00445866
0.000765853
0.00194717
0.0030956
0.000200187
0.000996017
0.0704692
0.000890033
0.00101655
0.000893719
0.00103523
0.00197772
0.00304226
0.00193232
0.00129684
0.000179762
0.0786009
0.068152
0.000798781
0.00116262
0.0782236
0.000712048
0.0542273
0.000615398
0.0711719
0.000874972
0.00222473
4.04486e-05
0.00155377
9.97523e-05
0.000825275
3.29297e-05
0.0777353
0.000872613
0.000638124
0.000289402
0.00231904
0.00178793
0.0018686
0.0763903
0.000610732
0.00178486
0.00173663
0.0709089
0.00610358
0.000209115
0.000828544
0.00279334
0.0777174
0.0650609
0.000331092
0.00169852
0.0785621
0.00664839
0.0728247
0.000640264
0.000703408
0.00185721
0.0108484
0.000110935
0.00390998
1.57892e-05
1.36998e-05
0.000314465
0.0778858
0.0664927
0.00182155
0.0773368
0.00138344
0.000644853
0.00291373
0.0585484
0.0001604
0.000722797
0.000823141
0.000219836
0.0776166
0.0779117
0.00182517
0.000960053
4.2371e-05
0.00109689
0.000199945
0.0780787
0.0010087
0.0141468
0.077411
7.85398e-05
0.00187577
0.044964
0.000574481
0.0456621
0.000102265
0.00220319
0.00152359
0.0749168
0.00116875
0.0960603
0.0578432
0.00121154
0.0723951
0.000290271
0.00133002
0.076607
0.00290604
0.0774542
0.00265212
0.0672455
0.0754617
0.00490264
3.78933e-05
1.52369e-05
0.00237184
0.00208944
0.000471759
0.0718392
0.0021602
0.00203293
0.013478
0.00256058
4.10316e-05
0.00257929
1.71841e-05
5.97545e-05
0.000135483
0.00133025
0.0782659
0.00149772
0.000324945
0.0777999
0.075962
0.00020582
0.00110464
0.00202719
0.00081635
0.0778702
0.00163284
0.00106381
0.0010191
0.0779349
0.00442496
0.000188936
0.0353209
0.000359306
0.0550586
9.18249e-05
0.000775
0.0359472
4.20795e-05
0.0012959
0.000674222
0.00101105
0.109528
0.00699988
0.000174891
0.0541073
0.0777483
0.000395169
0.000277409
0.043527
0.00143666
0.0782728
0.00186257
0.0763235
0.00137483
0.0628232
0.00253647
0.00238234
0.00161885
0.0117381
0.00122146
0.0684959
0.000639914
0.0790014
0.00174485
0.048572
0.00255841
0.00214204
0.0792456
1.9541e-05
0.00263023
0.00195219
0.0851693
0.00601489
0.00012112
0.00185255
0.0012353
3.78909e-05
0.00240715
0.0640974
0.000893445
5.44584e-05
0.0745909
0.000967309
0.0782844
0.000162533
0.0771464
0.00181464
0.00274834
0.00120264
0.000442739
0.00248397
0.0783008
0.000472468
0.0668002
0.0772384
0.000735625
0.00224229
0.0710283
0.000771929
0.0782504
0.0020433
0.00230182
0.000419491
0.0562971
0.00249036
0.000853059
0.00177191
0.0016396
0.0620788
0.0025128
0.00206262
0.0770852
0.00364874
0.000386077
0.00253096
0.0440801
0.000743806
0.0069992
0.000289183
0.0583795
0.00119552
0.00145358
0.00180179
0.0256519
2.28505e-05
0.000650683
0.0585337
0.00225251
0.0740777
0.00134293
0.000210899
0.000212138
0.0784269
0.000741486
0.0776242
0.000788073
0.000762532
0.000613258
0.00282933
0.000490452
0.0648407
0.135913
0.00156194
0.00307783
0.00182236
0.00297097
0.00270159
0.000259138
0.000908644
0.0790481
0.0137916
0.000601247
0.0738681
0.000301253
0.0768905
0.00236161
0.00426258
0.077582
0.0785345
0.0742498
0.101656
7.94632e-05
0.078432
0.0158843
0.000265408
4.59497e-05
0.00204795
0.000661338
0.0582428
0.000518374
0.00456754
0.00246991
0.0782245
0.00352002
0.0781309
0.000584788
2.00936e-05
0.00625128
0.000858287
0.00201837
0.0772663
0.00249463
0.00171344
0.00112898
2.80404e-05
0.0712215
0.070329
0.00272822
0.0006937
0.00052021
0.0446698
2.09441e-05
0.0034212
0.00100414
0.00182465
0.000198572
0.00596367
4.56171e-05
0.00281782
0.00248895
0.0790899
0.000890733
0.0168273
0.078874
0.0692046
0.0772854
0.00174124
0.0623838
0.000861326
0.076679
5.76363e-05
0.00224707
0.000107541
0.00178181
0.00227214
0.0935678
0.0580808
0.0667518
1.69142e-05
0.00130601
0.0774407
0.00428404
0.00256585
0.000662185
0.0014305
0.0778163
0.00201785
4.06755e-05
0.00244619
0.00181059
0.0773927
0.00303306
0.0774901
0.0461179
0.000117022
0.000407119
0.00080301
0.0749799
0.000225019
0.00236058
0.000434455
0.000683604
0.0790304
2.72577e-05
0.000557176
0.000158977
0.00223106
0.000322496
0.0684865
0.000313972
0.000824015
0.00100505
0.000588698
0.0784947
0.000295459
0.000608101
0.072603
0.000237478
0.0753923
0.00157559
0.00201679
0.000623555
0.00105309
0.00240702
0.00125915
0.0783303
0.00187263
0.000425461
0.000885252
0.000599023
0.000637101
0.0667684
3.05624e-05
0.000654438
0.0755408
0.0660193
0.000287925
0.0782876
0.00127078
0.00105883
0.0777197
0.00154341
0.0783412
0.000277413
0.00151774
0.00223943
0.00243529
0.000346992
0.0489907
0.00210233
0.00254217
0.0123717
0.00439812
0.000114946
0.00192642
0.00189714
5.5651e-05
0.000988979
0.000313645
0.000446538
0.073791
0.0024377
0.000841563
0.000437481
0.00131917
0.00166807
0.0671482
0.0778094
3.87365e-05
0.0749628
0.00265336
7.10238e-05
0.000477508
0.0785804
0.0572723
0.000614962
0.0629171
0.00247732
0.00107952
0.00139695
0.000302418
0.00111361
0.000666445
0.00258465
0.00131341
0.000224059
0.000349862
0.0774138
0.0617506
0.000427565
0.000293951
0.00966645
0.00171302
0.0139699
0.0768898
0.00236314
0.000590276
0.000817444
0.077123
0.0746144
0.0670035
0.000908944
0.0538801
0.0011243
0.00184169
0.00162245
0.00161091
0.0709965
0.000126965
0.0782041
0.00064495
0.000287297
3.19625e-05
0.00790738
0.0296338
0.00204615
0.0789321
4.2482e-05
0.00271738
0.0175727
0.0135504
0.00129738
0.00603261
0.000496304
0.000439088
0.0747915
0.000580437
0.00228681
0.00175154
0.0229244
0.00162375
0.0025656
0.00253234
0.0674769
0.0789329
0.000885056
0.00219255
0.00113246
0.000721594
0.00308056
0.00775095
0.000692741
0.000652278
0.000182395
0.00228462
0.000528871
0.0015203
2.72762e-05
2.63026e-05
0.0783211
9.85179e-05
0.0014471
0.0736224
0.000112077
0.00153475
0.0157379
0.0644388
0.00143439
0.000521587
0.000520142
0.00113576
0.00110981
0.00818139
0.0345695
0.00224185
0.00341317
0.079035
0.000605836
0.00022925
8.56877e-05
0.000158681
0.0773903
0.000982236
0.00136549
0.000984016
0.0770407
0.0675617
0.00199664
0.00197158
0.078925
0.100273
0.000130986
3.97889e-05
0.00135008
0.00193811
7.40658e-05
0.0578882
0.00183602
0.000134863
0.0756498
0.00134173
0.00502093
0.0783492
0.078241
8.41658e-05
0.0201627
0.00271097
0.00029816
0.00091358
0.000856334
0.00112586
0.000119117
0.0272846
0.0577541
0.00347525
0.0739534
0.00100958
0.00224432
0.0573749
0.000332604
0.00302776
0.00247182
0.0631667
0.06713
0.00178502
0.0171177
0.00218517
0.00227307
0.00249076
0.00185592
0.00241314
0.00266111
0.000950507
0.0678906
0.00209401
0.000943772
0.000205509
0.0661677
0.0689093
8.89872e-05
0.000109503
0.0701848
0.0136711
6.81407e-05
0.0729848
0.000677394
0.0609768
0.000863982
0.00113453
0.0013709
0.000931541
0.000589397
0.000106031
0.133918
0.00104345
0.0762053
0.000683958
0.00222867
0.0763206
0.00100723
0.00013023
0.00342386
0.00249983
0.0745523
0.00191134
0.0757551
5.06626e-05
0.000978504
0.00144611
0.00085377
0.000262051
0.000620111
0.000518914
0.0364432
0.000646905
2.69322e-05
0.000652006
0.00256322
0.000925184
0.0506078
0.0748174
0.001093
0.0779117
0.0345634
0.0773641
0.00241469
0.0023432
0.000568549
0.0634769
0.000913325
1.44713e-05
0.000530059
0.000698162
0.00037668
2.90632e-05
0.00118021
0.000817165
0.00200559
0.00159376
0.0788962
0.00195829
3.71133e-05
0.00116325
0.0548423
0.00135724
0.00188523
0.0955592
0.00219651
0.00177971
0.000145305
0.00221382
0.00432898
0.000435372
0.000266935
0.000417164
0.00227537
0.0763778
0.00191718
0.0611051
0.0172662
0.00331568
0.000963586
0.000710858
1.7055e-05
7.46687e-05
0.00109917
0.0784111
3.52017e-05
0.00182923
1.69905e-05
0.00120348
0.0775166
0.0244003
0.0764198
0.00156039
0.000888881
0.00198395
0.0522917
0.00087144
0.0737112
0.00225074
0.000689765
0.000189083
0.00055134
0.00207879
0.00214815
0.00082087
0.00247915
0.00272559
0.000926635
0.00188457
0.00597784
0.0657438
0.000393213
0.000285903
0.00126985
0.000572651
0.000425991
0.00332432
0.000485112
0.000410611
0.000749366
0.135365
0.00259656
0.00171055
0.0017466
0.065775
0.0748124
0.0772533
0.00113521
0.00260371
0.0033245
0.0707025
0.000453159
0.000766002
0.000176693
0.00157199
5.44378e-05
0.00022064
0.00225483
0.000113577
0.00292133
7.25321e-05
0.0769519
0.0100657
0.00240635
0.000919506
0.00064613
0.00158172
0.000857536
0.0789359
0.00113216
0.00905466
0.000644039
0.0783412
0.078653
9.68003e-05
4.11997e-05
0.000795808
3.43556e-05
0.000296528
0.001762
0.00264388
0.0738293
0.00294419
0.078763
0.00192779
0.00112087
0.000422755
0.00204951
0.00135222
0.0978278
0.0783167
0.00214986
0.00623647
0.00300972
0.00195881
0.0661071
0.000605278
0.000529957
0.00109681
5.21259e-05
0.0944443
0.000993892
0.0784126
0.000379081
0.000207114
7.96649e-05
0.00175854
0.000836823
0.0024742
0.00198886
0.065945
0.078373
1.90799e-05
6.24508e-05
0.00148551
0.00149662
0.00044367
0.0123633
0.00263934
0.00830409
0.00156957
0.00763165
0.0769189
0.00991023
0.000730889
0.000232478
0.00175155
0.00255452
0.0060654
0.000609498
0.00260688
0.0108645
0.00154117
0.0145084
0.00214004
7.14468e-05
0.00101262
0.0691385
0.0533853
0.0681425
4.99967e-05
0.0763991
0.054214
0.00234881
0.00182258
0.000105976
0.00201924
4.90915e-05
0.0771897
0.000870218
0.000288
0.000553097
0.00212797
0.000854522
0.0756392
0.00144343
0.00640808
0.0787453
0.00140322
0.00100855
0.00223121
0.001736
0.00133595
0.00267373
0.000587459
0.000846945
0.000386136
0.0018735
0.000347804
2.24308e-05
0.00199925
0.000202297
0.0694107
6.39613e-05
0.00132924
0.000753588
0.00297773
0.000853957
0.000259375
3.67531e-05
3.16823e-05
0.000880668
0.0713162
0.00201713
0.000579632
0.078227
0.000610716
0.00133867
0.000522807
0.00274458
0.0493847
0.00172473
0.077288
0.0782195
0.000629529
1.68443e-05
0.104892
0.00054915
0.0010629
0.00381394
0.0783629
0.00078337
0.00257694
0.00231758
0.00181893
0.000731734
0.00206089
0.00274806
0.0779819
0.0649449
0.000672918
0.0524802
0.0592287
3.36289e-05
0.00210943
0.06055
0.0769409
0.0782599
0.00235715
0.000526059
0.0784628
0.00183964
0.00256472
0.000662375
0.0556136
0.0742061
0.000199855
0.000396247
0.000523988
0.000630323
0.0567449
0.000577209
0.000680865
0.00180295
0.0787692
0.0055668
0.000814888
0.0784188
0.0770218
0.0788148
0.0778288
6.55044e-05
0.00266646
0.0689163
0.073139
0.00118924
0.00287004
0.000475895
0.000851746
0.0588469
0.0017649
0.00583032
0.0671518
0.00046068
0.0781629
0.0781522
0.0789598
0.137127
0.000324684
0.000454723
0.0014128
0.00127377
0.0263956
0.0202164
8.64043e-05
3.3285e-05
0.00321903
0.00148551
0.000843866
0.00481644
0.000804622
0.0785879
0.00101868
0.000744148
0.00121571
4.4272e-05
0.00280349
0.0764977
0.000413018
0.000280332
0.0788171
0.0791526
0.00202373
0.000671916
0.000857675
0.00292664
0.000653739
0.000245834
0.0022699
0.00191712
0.0762777
0.0828361
0.0784416
0.00131908
0.00230886
0.00212106
0.0797146
0.000938752
0.00290342
0.00142332
0.0629821
0.000911492
0.0775197
0.063763
0.0033913
0.00214211
0.000285946
1.63526e-05
0.0710763
0.0014247
0.000959702
0.132169
0.000619302
0.00141027
0.00264103
0.0782275
0.00105359
0.000939746
0.0642326
0.000997873
0.0120788
0.000290406
0.0675079
0.00283696
0.0783696
0.00138613
0.00178097
0.00254484
0.000980278
0.0555836
0.00249471
0.000683068
0.00263872
0.00495086
0.00122352
0.0775173
0.00506796
0.0564442
0.00171767
0.00254443
0.000552593
0.00157015
0.0090963
8.74595e-05
0.00254841
0.0776365
0.054698
0.00392855
0.0784166
0.00014199
0.0059134
0.000562532
0.0300624
0.00027846
0.00177283
0.0785417
0.0785502
0.000503914
0.00233845
0.0781306
5.27746e-05
0.00202013
0.0012033
0.000880807
0.00213934
7.41701e-05
0.000447386
0.0015001
0.0711309
0.00236365
0.00503913
0.0774589
0.00458299
4.90534e-05
0.00246225
0.000745376
0.00177516
0.0856399
0.00340172
0.0790213
0.0779977
0.001742
0.000732261
0.00103566
0.0784335
0.000205446
0.00076868
0.00170527
0.00133822
0.0782179
8.9293e-05
0.00213716
0.00228181
0.0790764
0.0783336
0.00263016
0.0760725
9.59702e-05
0.000662135
0.078747
0.0609524
0.00193214
0.0776935
7.69891e-05
3.03441e-05
0.000232986
0.0103046
0.00233932
0.000222902
0.0611854
0.000546848
0.0783629
0.000244227
0.000153447
0.000680498
7.86616e-05
0.100616
0.0962758
0.000703747
0.0643895
0.000853417
0.000717461
0.0786472
0.000910226
0.00637837
0.00130863
0.00165133
0.000412752
0.00168597
4.25648e-05
0.0669234
0.000881756
7.94075e-05
0.004303
0.00110535
0.000556365
0.00235386
5.83394e-05
0.077521
0.000447429
0.0793359
0.00213796
0.00107856
0.0767137
0.0783584
0.0702815
0.00181439
0.0717526
0.0686974
0.00163614
0.00215152
0.13029
0.0772901
2.8653e-05
0.000753279
0.0715034
0.0728177
0.00099357
0.0782486
0.0735885
0.0788681
0.0779994
0.000125338
3.38758e-05
0.00186264
0.00123414
0.00279857
0.00757496
0.0704089
0.00189877
0.0728052
0.000155978
8.91842e-05
0.00102082
0.0619091
0.0760389
0.0021882
0.000666523
0.0744154
0.000645409
0.00182777
0.00274987
0.000164557
0.0778629
0.00108114
0.0778484
0.00931472
0.00253548
0.0452924
0.00277957
0.00220495
0.000913027
0.122082
0.00127224
0.0347899
0.000979946
0.000247172
0.00238864
0.0779468
0.0782823
6.39678e-05
0.000889121
0.0563761
0.00106815
0.00366457
0.0776379
0.0468517
0.0491382
0.00210846
4.45067e-05
0.0683174
0.0215524
0.0777768
0.000925541
0.0781345
0.0546262
0.000556631
1.88212e-05
0.000500999
0.00617471
0.0784386
0.00245328
0.0520815
0.00210046
0.000694201
0.00165681
0.0102406
0.000621498
0.00235415
0.000887274
0.00229933
0.0021543
0.0714994
0.00256655
0.00191374
0.0773976
0.000755508
0.0017021
0.0650939
0.00415327
0.00234468
0.000561288
0.000827637
0.00142448
0.000347025
0.000110245
0.0013628
0.0769024
0.002238
8.61301e-05
0.00213636
0.000624523
0.00210579
0.00131082
0.047382
0.0130831
0.00122196
0.000244645
4.44745e-05
0.0768859
0.00243584
0.00068419
0.000855526
0.0646566
0.000406437
0.0775164
0.0782222
4.15438e-05
0.0765244
0.0790165
0.000260954
0.000553331
0.0760254
0.00211431
0.000767744
4.0686e-05
4.32411e-05
2.36934e-05
3.31987e-05
2.80575e-05
2.51013e-05
4.40483e-05
3.61792e-05
3.89992e-05
0.00146429
0.00710717
0.000376043
8.37939e-05
0.0584956
0.000259904
0.129978
0.000431341
8.13086e-05
0.00107317
3.81132e-05
0.0696865
0.000280888
0.00206612
0.000360345
0.00177073
0.00265141
0.000143352
0.0768076
0.00106352
0.00129456
0.00258161
0.0022626
0.0143477
0.0012789
0.00146748
2.56713e-05
0.00197678
0.000935101
0.0691821
0.00253845
0.00540424
0.0786528
0.000744062
0.000899009
0.000668183
4.46629e-05
0.00014471
0.000669759
0.00107461
0.000308267
0.000278122
0.077404
0.00195838
0.0838409
0.00125078
0.0518706
0.0790287
0.000821483
0.0813119
0.00462371
0.000942691
2.95676e-05
0.00820716
0.000201064
0.0696906
0.078532
0.000791304
0.000702214
0.000688546
0.000517342
0.0777164
0.0603846
0.00276815
0.000927383
0.0632718
0.00131658
8.628e-05
0.0712591
0.000408836
0.00305787
0.00173526
0.00180447
0.00420962
0.0701294
0.00101007
0.00345304
0.0016203
0.000744115
0.0473107
0.00179258
0.0771944
0.0775739
0.0712994
0.0749455
0.00105222
5.93464e-05
0.00126794
0.0771432
0.0021747
0.00222803
0.000887603
0.00062331
0.014584
3.64828e-05
0.000105283
0.00122793
0.0579755
0.0107899
0.00120833
0.0649447
0.119135
0.000802331
0.00751024
0.0762963
0.0790407
0.06564
9.58067e-05
0.0776766
0.00280108
0.00298165
0.0586303
0.0783932
0.000406548
0.000341256
0.000437561
1.65905e-05
0.00122773
0.00196829
0.000173817
0.00042481
0.00190253
0.0732864
0.00207138
0.0036697
0.00922389
0.000446374
0.00224253
0.000515457
0.00209958
0.0784052
0.00295153
0.0020458
0.00130881
0.00249636
0.00164242
0.00295035
0.00231244
0.0697033
0.000451293
0.0012398
0.000449769
0.000282918
0.0038548
0.0070582
0.0704159
0.0617864
0.103736
0.000701095
0.0778267
0.000634378
0.0026235
0.000350688
0.000349934
0.00088108
0.000314328
0.046794
0.001978
0.0536857
0.00110402
0.00177688
0.00139764
0.00283702
0.0780349
0.00257697
0.00194967
0.000181776
0.00199272
0.0182325
0.00174053
0.000394358
0.00197646
0.00220088
0.00155496
0.00255056
0.0788406
0.00146286
0.000883635
0.078334
0.0784626
0.000801666
0.00164195
0.0671588
0.00757615
0.00855006
0.0778153
0.066234
0.0394345
4.4856e-05
0.00212666
1.85495e-05
0.0741412
0.00021735
0.00232742
0.00274675
0.00400529
0.00243551
0.0285858
0.00120291
0.00302658
0.0787177
0.00249504
0.0653799
0.00195881
0.0657348
0.0645063
0.00125199
0.000708893
0.000459879
0.00478352
0.000188687
0.000212536
0.000480034
0.000381285
0.00277102
0.00797898
0.000327975
0.000327397
0.00256853
0.00153472
5.48706e-05
0.00230641
0.00151011
0.000912352
0.0540686
0.0762036
0.00180893
0.00287955
0.0432359
0.0785199
0.00294191
0.0545724
0.00153662
0.00131149
0.0656323
0.0784361
0.0861395
0.000413286
0.0086032
0.0732645
0.00259012
0.0611324
0.0531123
0.00182715
0.000284764
0.000367093
0.000562339
0.00182319
0.00140813
7.11477e-05
0.000137904
0.0779202
0.0783166
0.00123581
0.0769637
0.00225506
0.000737639
0.012238
0.00246564
0.00224798
0.0784243
0.0015622
0.00299433
0.000546382
0.000416023
0.0779953
0.00149157
0.0754083
0.0785484
0.00067474
0.000266216
0.00015447
0.00146553
0.0675609
0.000535286
0.00146833
0.100043
2.19508e-05
0.0731084
0.000748837
0.0708986
0.00160097
0.0180252
0.0072409
0.000925571
0.000524807
0.00118707
0.00251336
0.0784946
0.00255207
0.000525912
0.00434018
0.000933095
0.0161038
0.00090253
0.0015424
0.000186284
0.000126932
0.0787074
0.0700854
0.00169659
0.00147396
0.00117668
0.00110867
0.0015122
0.00174142
0.0614823
9.88817e-05
0.00206151
0.0561485
0.00119313
0.0781938
0.00146673
0.00124191
0.002879
0.0785651
0.00170439
0.000400856
0.00048161
5.0916e-05
0.001818
0.000925224
0.001232
0.00175042
0.000422263
0.00237202
0.000289267
0.000502912
0.00132207
0.00220963
0.000538998
0.000834573
0.00212102
9.86174e-05
0.000106861
0.00147308
0.00061803
0.000324277
0.0783637
0.000468012
0.000669191
0.078258
0.00311133
0.00220027
0.0770344
0.0782919
0.00181258
0.00289497
0.037305
0.0785629
0.00234477
0.078363
0.081633
0.00179159
0.0779254
3.20592e-05
0.000770021
4.04645e-05
0.000141378
0.00148306
0.0150336
0.00179122
0.00125043
0.00180108
0.0789764
0.00141153
5.38886e-05
0.000974759
0.000712537
0.000579665
2.54094e-05
0.00123385
0.000721293
0.000107253
0.00402393
9.71917e-05
0.076126
0.0766553
0.00445389
8.69539e-05
0.071303
0.0709963
0.0535561
0.0780976
0.00108392
0.00184691
0.00278474
0.0118224
0.000233022
0.00462519
0.00264099
2.7426e-05
0.000756335
0.000859884
0.000228659
0.000979516
0.000231071
0.00124433
0.0783242
0.000699309
0.000554625
0.000414497
0.0582191
0.00238212
0.00114458
0.0768692
0.000862583
0.000832601
0.000131501
0.000509904
0.00101119
0.0131396
0.00102986
0.0784659
0.0784672
0.07836
8.95097e-05
0.0257997
6.40415e-05
5.60349e-05
0.00172525
0.00232461
0.000837317
0.00105139
0.00215338
0.000733875
0.0775596
0.000153427
0.00241883
9.32077e-05
0.0787993
0.000403903
0.00261325
7.55456e-05
0.0161851
0.00101908
0.000529418
0.078529
0.0780545
2.13971e-05
0.078388
0.000103536
0.000513588
0.000508894
0.00110711
0.00189589
0.000608331
0.000803972
0.0783297
0.000437909
0.00267709
0.0120455
0.00194776
0.000126253
0.000743462
0.00958868
0.00104096
0.0770834
0.00171138
0.00239759
0.0751423
0.000509739
0.00135977
0.000972639
0.00258233
0.0751079
0.0747963
8.32001e-05
0.0552246
7.62898e-05
0.000346576
0.0784547
0.00244373
0.00262453
0.00224087
0.0021741
0.000687679
0.00186042
0.0701216
0.021797
0.000323272
0.00130119
0.000993952
0.00110306
0.023368
0.000750025
0.0890111
0.00410018
0.00169057
0.00152708
0.000282067
2.29383e-05
0.000643385
4.76997e-05
0.00203525
0.0662215
0.000532579
0.00180504
0.0768779
0.000298119
0.066105
0.078035
0.0741489
0.00116475
0.000799451
0.00116787
0.00194376
0.0596538
0.00233081
0.000348729
0.000960062
0.00148045
0.0396123
0.00127052
0.00164993
0.000736867
0.0785422
0.0677868
0.0021911
0.00132602
0.000972501
0.000199011
2.35167e-05
0.01702
0.00010206
2.07316e-05
0.000445719
0.00107576
0.000716778
0.00257059
0.015812
0.00236549
0.00107362
0.00106402
0.00249961
9.97162e-05
0.00120586
0.00807366
0.00301554
0.00056842
0.000271318
0.0117495
0.00280495
9.48434e-05
0.00324052
0.0794653
0.0664355
0.00193658
0.0588921
0.0782552
0.00131186
4.38229e-05
0.0666798
0.0012176
0.000265583
6.60879e-05
0.000224066
0.0751972
0.0653789
0.0676258
0.00153893
0.000539363
0.000323934
0.00080307
0.000987535
9.77372e-05
0.00558547
0.00531535
0.0482307
0.0757603
0.00259088
0.000411748
2.14055e-05
0.0699743
0.000844528
0.00173784
7.36905e-05
0.000214216
0.0019126
0.0463625
0.0526206
0.00149479
0.00180833
0.0246124
0.00250551
0.000901879
0.0782035
6.92962e-05
0.00138421
0.0672331
0.0783077
0.00243811
0.0669082
0.00245347
0.0644014
6.73138e-05
8.43238e-05
0.000390869
0.000693914
0.000447854
0.0787552
0.000715569
2.53724e-05
0.0007521
0.00217581
0.000550506
5.91293e-05
0.00257115
0.00117781
0.00174002
0.000375125
0.0751445
0.00160178
0.000405407
0.000530108
0.00210821
4.40143e-05
0.0754786
0.000223386
0.00189682
2.51616e-05
0.00140974
0.0176412
3.39272e-05
0.0735474
0.0701824
0.0782814
3.4905e-05
0.0007125
0.000364427
0.00194145
0.00105667
0.000709453
0.0013022
0.0782771
5.31844e-05
0.00267062
0.00152165
0.00245785
0.00100494
0.000849213
0.0640848
0.000692515
0.000394775
9.15134e-05
0.00169211
0.000523874
0.00110099
0.00045135
7.55116e-05
0.00091811
0.00125381
0.00242816
0.000653196
0.0780793
0.00232352
0.0001557
0.000218138
0.000956987
0.0621634
0.0491616
0.07695
0.00300237
0.0392009
0.000734313
0.00158456
0.0606031
0.00161833
0.0782284
0.00171543
0.000607429
0.000865515
0.000790832
0.0762478
0.000560506
0.000972459
0.077904
0.0784108
0.00247164
0.0785086
0.0001678
0.0769473
0.0024764
0.000106609
0.00155993
0.0037136
0.000761553
0.0377091
0.0783633
0.000569533
0.0072713
0.000868026
0.0783353
0.0010314
0.000527601
0.0247289
0.0194307
0.0550329
0.000121207
0.0781013
9.48667e-05
0.00182389
0.000617495
4.05354e-05
0.000209319
0.000208656
0.0053578
0.00123638
0.00256473
0.0779817
0.00221256
0.0738807
0.0515202
0.0476575
0.00446917
0.0313231
0.00387622
0.00157527
4.64923e-05
0.00036023
0.000619193
0.067865
0.000983063
2.82659e-05
0.0365457
0.0789554
0.0047263
0.000991439
0.00282697
0.000701637
0.000559357
0.00135477
0.000177071
0.00104608
0.000525411
0.0787317
0.00287441
0.00181921
0.000820148
4.17211e-05
0.000735173
6.84121e-05
0.00205956
0.0761859
3.85485e-05
0.000744993
0.00219214
0.0698963
0.00055909
3.49233e-05
0.000102298
0.00307989
0.00396238
0.00107981
0.00206936
0.000758393
0.00093552
0.00024852
0.000674675
0.00585018
0.00240431
0.00172237
0.00314271
0.00133295
0.0776001
0.00277872
0.00100284
0.00439161
0.0234669
0.0784282
0.00300762
0.00097356
0.00132445
0.000120079
0.000570408
0.0987668
0.000400374
0.00107519
0.0732945
0.00060145
0.000437133
0.000401139
0.0457021
0.0776007
0.0781572
0.0770252
0.0812157
0.000510495
0.0603671
0.00164219
0.00140561
0.00532272
8.92959e-05
0.00672812
0.0178456
0.00536476
0.0755649
0.00229128
0.000165315
0.00325098
0.00102536
0.00181151
0.00154568
0.0781439
0.00102327
0.00127907
0.000173231
0.00238941
0.00304228
0.000772012
0.07627
0.00186403
0.0579473
0.0012078
5.45625e-05
0.0781242
9.6816e-05
0.0759477
0.000302865
0.000538082
0.000287934
0.000520861
0.00126959
0.000171963
0.00176509
0.000410513
0.00231949
0.000308064
0.000327461