/*--------------------------------*- C++ -*----------------------------------*\
  =========                 |
  \\      /  F ield         | OpenFOAM: The Open Source CFD Toolbox
   \\    /   O peration     | Website:  https://openfoam.org
    \\  /    A nd           | Version:  8
     \\/     M anipulation  |
\*---------------------------------------------------------------------------*/
FoamFile
{
    version     2.0;
    format      ascii;
    class       volScalarField;
    location    "7e-05";
    object      T;
}
// * * * * * * * * * * * * * * * * * * * * * * * * * * * * * * * * * * * * * //

dimensions      [0 0 0 1 0 0 0];

internalField   nonuniform List<scalar> 
23640
(
89.6627
81.6801
256.654
288.043
85.6624
188.333
70.1028
119.826
109.756
146.812
273.83
81.8203
79.5692
82.531
209.013
192.505
81.7435
247.969
263.808
101.96
270.872
196.953
270.483
271.027
92.3832
76.8487
157.023
109.069
71.4033
94.5972
74.5735
299.933
270.974
89.0793
105.263
210.455
82.8611
70.2779
143.485
275.729
83.8919
109.481
84.1649
130.925
293.176
172.608
85.1696
81.8794
144.754
125.255
299.777
250.467
204.129
70.8848
288.219
228.452
145.559
88.6169
60.6073
294.297
73.7391
170.415
279.812
252.9
64.0625
252.549
188.267
90.0345
242.665
85.2834
277.973
87.9598
263.798
73.6017
191.665
299.87
228.251
78.836
264.24
279.028
180.248
130.003
67.5932
68.4227
62.9482
192.457
250.005
274.529
266.654
210.516
64.014
89.7452
140.933
264.188
249.303
88.8252
254.287
232.731
113.211
147.416
121.512
70.7013
271.888
80.9367
101.348
70.5687
284.465
69.4209
82.8541
109.047
71.4302
263.977
91.6277
84.5174
165.748
70.757
211.167
70.6463
90.1312
94.8432
272.505
298.815
232.876
299.354
130.308
273.96
299.835
141.122
183.854
83.1513
121.045
117.613
80.3408
141.633
78.2208
274.727
272.897
91.5644
273.493
256.782
111.642
150.859
263.033
273.907
263.407
97.4505
275.12
275.753
64.6004
249.237
132.982
210.629
70.324
282.591
114.09
71.8544
70.1246
88.9478
184.549
155.818
217.586
193.292
208.861
173.559
67.4346
66.7766
280.793
161.157
284.748
116.655
81.5921
163.196
184.102
81.6595
281.449
281.46
82.9334
164.708
279.215
92.4087
293.006
222.21
91.4991
102.355
74.3034
215.291
127.776
126.43
294.469
104.661
118.545
274.151
298.441
69.6535
70.2257
275.398
102.251
190.319
201.912
148.538
269.01
125.371
73.7932
109.513
266.222
61.5955
205.743
270.584
148.935
280.986
83.7052
88.6938
91.8609
61.6603
220.945
101.095
86.5326
101.106
147.881
102.045
91.2638
273.732
269.116
81.8695
270.44
90.3415
76.7644
299.173
108.29
64.0557
88.7777
69.6183
96.7117
87.2316
88.544
129.861
277.832
100.722
64.8841
183.266
123.388
176.149
84.1367
109.831
286.883
72.0907
116.321
220.698
279.623
273.176
294.707
76.9688
84.8153
281.597
60.4619
275.781
199.824
68.8487
286.424
285.858
291.422
72.4283
117.788
83.169
75.6458
83.7927
145.325
119.13
60.415
246.887
126.648
65.3674
273.31
294.356
141.266
89.1588
74.6798
298.863
253.303
81.2177
274.348
83.2338
213.316
274.593
142.731
171.67
138.993
212.721
75.435
274.419
95.8604
75.9727
99.6548
155.767
273.302
106.942
81.083
74.1399
79.8727
92.9906
163.462
253.92
299.1
91.5747
272.288
63.8424
120.759
158.025
290.058
263.381
69.0033
134.918
281.512
263.893
268.617
143.619
122.56
246.335
250.433
170.429
103.874
88.763
106.015
108.188
77.6373
133.25
296.261
105.161
115.916
299.895
214.399
117.184
102.876
115.308
105.447
91.9625
211.718
122.031
109.058
79.6636
205.918
258.795
113.471
298.985
274.224
246.177
162.346
82.2729
89.4782
97.0415
285.615
131.247
66.832
70.5544
104.624
62.9093
122.705
71.9017
279.749
273.907
126.342
271.827
256.45
92.7831
99.2977
71.1097
63.5074
130.188
264.262
92.4775
151.702
262.681
69.0679
268.913
129.012
67.0283
297.65
167.158
104.871
146.196
263.396
262.658
101.2
258.315
106.034
74.5434
156.99
64.422
275.423
67.8916
243.287
203.881
227.302
194.88
126.71
272.808
298.688
76.0918
83.9142
158.561
132.908
280.785
160.422
64.974
79.9299
76.7404
289.121
71.3719
182.876
176.667
192.742
279.506
283.164
113.164
275.2
82.7092
169.011
82.8509
124.334
94.7307
286.16
244.14
79.2111
202.34
139.607
65.3267
299.201
234.556
271.952
157.066
79.3741
294.731
280.485
270.042
128.753
274.329
153.13
215.393
173.126
297.212
116.216
279.785
228.313
148.852
198.293
156.76
161.516
132.984
270.535
129.752
299.999
183.785
281.851
192.974
237.809
75.2572
71.3031
119.965
286.936
162.801
123.085
137.466
90.9717
300
195.432
94.9645
185.904
241.388
124.032
120.145
118.843
93.3367
291.659
127.73
125.854
174.035
85.0186
299.979
134.265
299.474
136.056
78.4458
102.421
146.377
209.022
147.915
270.62
111.529
76.0548
76.8449
144.898
299.331
78.3625
272.78
102.416
76.6855
136.427
211.66
159.677
74.314
88.3236
277.698
65.7431
94.7808
91.9651
60.3719
125.076
67.6398
75.9147
80.5083
174.26
103.268
179.565
190.707
269.54
84.4442
90.53
70.6788
110.11
275.493
199.881
238.474
300
223.262
77.3974
91.8737
268.446
117.039
263.691
60.584
78.0712
270.511
138.029
226.611
223.314
83.6295
195.441
116.38
67.4344
111.236
185.988
92.1188
103.529
79.1467
76.1645
83.3491
222.2
264.721
92.7127
92.385
177.92
86.9189
225.057
107.561
170.796
86.4707
92.3064
180.882
272.802
281.462
173.976
274.797
93.9004
149.887
258.919
270.029
174.693
267.485
168.024
178.639
299.999
84.0396
102.912
68.6473
70.5209
264.122
230.349
188.496
111.144
83.053
294.897
110.653
71.7024
117.754
264.287
267.738
175.418
111.465
76.2177
267.633
279.755
95.8766
83.855
110.223
60.3524
251.26
100.072
141.156
93.7585
126.157
275.099
270.784
287.115
137.077
91.9454
201.529
136.319
107.077
85.969
268.239
93.5007
133.106
84.2444
98.1515
189.779
131.585
223.956
100.977
75.6397
299.357
265.977
81.5925
102.421
279.948
84.187
248.732
76.5799
269.338
89.8429
228.927
68.4031
133.158
137.341
92.733
95.6986
290.092
88.6778
77.8859
76.5691
216.104
109.724
236.835
274.965
79.3102
217.391
110.645
269.052
139.984
74.7802
82.5553
150.771
299.027
263.72
63.9921
100.572
296.056
158.827
270.837
81.3591
183.014
101.847
166.252
70.5313
135.392
218.02
216.297
119.699
298.805
265.375
160.154
299.046
106.531
76.7965
177.997
254.6
76.7675
84.2579
88.6072
76.3886
277.861
295.717
111.572
92.6943
123.722
88.3223
76.3608
289.204
87.6006
178.391
298.952
70.9718
218.272
236.616
79.7438
236.562
80.965
210.901
109.647
273.464
90.6187
299.992
253.705
92.3582
272.022
79.6315
104.633
275.507
132.263
276.425
121.674
264.63
274.336
146.458
90.5084
199.673
215.669
196.167
70.5672
269.779
234.771
109.443
171.94
125.405
85.8752
112.337
276.64
77.8142
72.2611
96.1157
285.912
108.378
72.491
277.834
274.505
71.3789
89.1781
241.971
82.8297
278.142
110.154
173.735
87.207
278.317
145.4
80.5233
221.762
72.551
256.4
67.5436
89.5275
220.454
62.6726
101.409
85.539
94.3325
299.976
144.879
72.4363
248.494
276.907
70.5642
60.8791
234.432
103.537
288.136
239.693
275.419
94.1331
259.483
111.618
205.2
98.7231
169.243
91.5351
268.172
81.3143
283.001
109.95
240.932
201.345
115.23
299.494
211.372
196.374
233.742
299.405
139.041
72.7253
102.037
92.0396
112.151
201.472
261.659
90.1977
93.8136
273.053
211.896
278.718
89.5532
275.918
113.247
155.088
100.56
71.2563
125.816
295.437
70.9549
264.364
276.374
88.531
185.761
270.223
85.444
289.256
194.987
119.432
68.1921
265.402
212.484
82.5562
111.061
238.707
267.883
110.477
238.557
275.94
122.207
73.5319
123.563
234.698
86.6922
143.719
77.598
254.285
91.3512
106.884
184.523
200.407
190.295
83.2881
254.43
127.562
272.677
103.758
70.6783
75.3105
282.808
86.7093
276.772
87.2531
92.8047
79.6894
190.584
117.045
262.432
299.998
133.663
121.363
111.9
123.124
121.727
92.9164
92.886
284.191
170.796
79.3981
272.47
72.8223
295.568
227.033
138.204
276.58
279.476
272.618
299.998
73.6302
294.533
187.931
80.7277
67.6482
113.04
89.4129
254.051
75.4971
146.926
137.045
278.918
121.318
288.834
126.207
183.86
140.457
82.2741
221.914
276.559
112.287
223.534
182.258
130.808
269.9
268.474
192.099
83.5261
75.3292
236.651
228.655
123.82
200.53
116.535
71.2964
148.358
69.2019
142.924
114.405
296.735
89.4038
179.932
283.997
267.07
276.892
205.752
259.444
95.5398
275.568
63.6595
215.584
71.4899
110.596
180.369
299.774
253.865
264.003
264.053
95.4846
292.118
131.834
221.482
88.0282
109.25
278.495
209.654
64.5841
180.38
198.356
277.03
142.25
276.441
237.999
69.4064
72.3321
83.2905
273.632
71.871
225.984
71.5639
90.2468
283.22
158.119
75.102
74.1576
115.228
63.4709
266.297
108.81
81.6686
191.946
75.4317
295.978
62.6317
76.0582
270.953
92.0798
274.026
109.295
222.795
80.6801
89.0957
219.502
101.938
278.316
223.729
73.5976
83.3322
75.8339
77.0368
264.16
133.432
83.4009
274.216
263.646
105.855
288.042
103.318
89.4415
276.828
106.828
295.993
60.6557
107.049
201.959
145.499
107.154
241.824
105.354
218.866
167.4
135.954
66.7805
211.763
234.452
75.7653
92.7056
73.7647
69.493
272.801
163.065
141.09
69.086
93.8853
243.462
264.758
298.564
76.3171
273.694
112.398
87.3973
72.375
286.777
261.218
76.1815
259.967
112.048
131.511
95.2049
77.9566
96.1674
81.8814
204.447
100.634
80.2701
107.058
276.367
269.632
68.6186
79.7006
162.948
111.87
174.173
295.932
117.701
82.0471
82.4693
294.302
273.539
264.501
92.8909
248.011
102.2
236.112
98.6244
163.862
269.832
92.7615
280.02
77.1258
126.034
108.223
149.982
211.195
217.302
280.372
70.2064
150.925
193.028
181.823
109.065
138.527
74.2487
71.7819
273.417
80.4825
196.123
105.14
195.99
237.769
213.698
124.232
265.303
280.437
84.6108
107.096
96.6956
93.9243
132.351
167.014
90.1479
83.2733
75.0198
234.559
73.1982
107.336
145.604
159.844
285.109
75.4466
107.357
271.634
92.4412
105.302
179.671
262.341
124.639
75.39
75.4146
105.01
95.9338
154.7
218.4
212.142
119.849
281.12
79.7344
104.285
70.3769
76.6164
299.262
92.3569
93.854
92.3052
293.667
264.936
206.038
205.812
281.984
299.999
68.0588
97.1226
110.409
220.603
75.5527
253.739
211.789
74.2854
274.308
141.682
147.074
284.92
290.351
79.8902
189.332
162.388
72.8759
96.006
138.683
89.8828
70.8421
207.263
268.253
120.498
272.159
87.6658
184.089
252.352
75.6348
127.077
112.194
259.927
266.398
100.803
179.308
121.548
194.989
114.04
223.966
166.244
145.948
91.4401
265.347
113.761
90.6177
91.8804
263.623
266.764
68.4534
81.7383
268.07
181.69
63.4948
272.1
91.9059
257.338
90.7519
182.158
112.01
91.2726
74.3305
74.9398
299.999
151.151
275.205
83.5038
121.295
275.387
86.5014
72.3234
120.311
173.589
273.568
218.015
274.499
61.9468
85.7062
107.295
88.8324
108.497
76.3726
75.5663
220.929
83.0425
147.847
82.1683
172.987
91.6993
243.838
273.317
95.6569
278.653
220.24
292.39
111.585
229.098
79.3998
260.582
93.7962
271.527
73.1983
80.8383
70.0223
120.042
97.7699
81.6128
108.892
189.638
284.922
210.1
92.8101
97.6408
249.36
149.612
216.354
299.862
225.099
103.359
70.0371
187.282
127.726
71.1884
122.312
73.1408
119.636
275.651
145.965
257.689
180.98
122.576
92.2623
79.3512
187.601
71.4182
95.8767
278.151
143.259
234.357
259.299
99.5273
276.726
199.056
275.456
107.605
89.0841
213.727
245.963
84.1119
272.245
233.04
82.8517
79.8009
76.8103
242.805
114.764
82.5939
221.373
152.843
91.567
215.224
137.088
263.236
71.3374
68.6067
100.538
73.9296
71.5685
178.235
73.7481
73.4539
93.6726
300
128.591
157.934
103.793
263.304
273.373
276.302
97.3842
165.32
119.569
268.927
70.0102
86.7406
75.3276
100.184
80.6313
76.0096
109.358
73.5843
152.076
72.6577
275.695
183.924
110.571
91.0343
76.6651
140.226
83.9133
284.059
97.6018
160.67
76.7978
279.169
279.869
65.5769
67.3525
86.3608
126.035
77.0489
105.805
115.561
272.383
138.657
281.466
212.613
89.8408
71.9786
108.665
94.1459
299.937
278.066
221.283
148.964
121.172
227.609
263.908
79.2915
72.9503
90.723
142.965
299.974
94.5446
286.266
72.4882
80.8075
73.2044
110.907
82.4859
120.362
197.695
263.474
278.265
185.076
80.6747
104.881
134.876
71.3523
168.688
136.022
162.698
100.327
148.481
276.496
158.135
79.8388
68.4747
196.112
169.109
150.603
75.9656
112.547
158.783
97.4169
178.3
116.171
77.1452
210.024
268.59
252.656
267.243
66.4673
275.515
248.715
221.711
111.614
69.3283
211.338
83.6139
276.09
83.4702
68.3421
73.1115
109.659
89.3615
274.342
95.4254
145.668
281.368
170.483
202.991
203.62
102.419
182.082
112.367
80.7646
87.9091
73.1029
206.932
81.5915
174.555
228.454
72.4722
267.261
62.8821
151.067
84.8882
151.915
190.378
128.898
106.057
113.473
89.132
269.468
240.3
80.4108
294.663
79.7026
94.1405
113.514
123.139
242.015
227.742
292.863
294.816
76.6195
242.916
300
77.9006
90.0807
134.056
278.275
87.2433
158.186
108.089
111.481
80.4863
232.613
116.582
291.634
262.785
77.6192
246.225
258.534
133.3
113.691
256.688
276.463
279.353
221.05
72.8806
294.991
182.091
152.2
77.3815
254.429
272.491
72.2784
73.5631
72.8055
76.4682
252.341
74.0485
92.6775
111.119
279.568
145.595
82.139
281.507
293.918
281.386
295.303
78.7765
111.94
268.084
272.262
92.0966
119.746
70.8652
91.0163
254.915
221.477
146.665
264.928
70.3165
286.945
290.78
281.556
299.998
71.7711
71.1398
104.528
93.2742
206.137
197.82
74.0911
87.6982
131.716
104.286
87.8931
145.286
81.8876
280.265
183.494
80.7973
101.475
66.5961
126.312
275.744
67.8515
80.8118
296.169
280.999
192.816
83.3647
89.5866
126.752
82.3185
80.8524
109.8
228.882
274.794
299.795
286.323
180.195
233.386
223.488
297.299
197.356
125.918
102.908
265.442
95.1033
276.415
260.878
141.013
178.774
78.5868
208.572
268.869
103.235
93.5012
299.997
76.0993
164.16
148.422
288.499
95.2398
91.2705
261.42
152.243
166.973
62.0333
267.674
114.109
285.296
105.09
100.595
206.082
168.358
250.812
226.177
92.2633
144.741
131.106
96.412
277.634
131.627
251.306
109.665
154.753
78.9058
107.407
152.049
67.4491
153.159
298.752
249.462
172.411
278.155
124.345
150.97
78.8375
211.417
60.8699
215.243
280.828
280.227
74.7857
117.593
279.842
90.9768
103.917
91.4638
90.7428
116.245
75.9376
69.8334
103.872
268.907
119.945
133.135
277.147
129.199
160.004
119.649
84.5923
111.648
299.54
121.955
283.413
298.535
109.808
79.3734
116.117
283.594
80.3205
85.6642
178.093
103.787
280.16
68.8835
126.625
225.737
283.989
278.197
169.582
274.954
71.9043
83.2917
279.457
257.204
103.467
298.791
75.2926
119.928
91.2168
158.968
120.902
107.346
263.231
85.2923
298.974
75.3485
115.062
89.914
80.0996
300
300
83.9989
261.461
89.6737
82.6183
279.076
90.5489
140.194
92.7778
109.844
67.9814
108.833
95.5085
265.535
88.879
70.0156
126.748
96.3481
79.5265
227.929
63.4605
277.717
115.153
297.656
188.553
112.238
275.769
278.152
268.196
111.21
269.743
266.554
99.2057
117.602
299.998
276.329
156.871
79.9397
269.484
271.883
94.5346
280.344
271.612
285.2
278.428
90.1497
84.4072
218.387
100.214
187.152
152.612
268.743
227.435
271.194
70.8852
78.8659
189.27
258.621
274.49
123.215
77.5019
272.814
82.0046
232.379
127.476
123.159
299.183
131.855
277.155
153.303
119.672
237.4
123.422
196.365
91.1424
299.979
100.724
217.952
85.5092
80.4901
217.872
288.641
285.967
62.7818
84.4279
251.806
173.7
121.672
276.739
238.324
242.822
113.953
65.657
266.111
192.261
277.876
96.0202
289.234
258.301
79.418
213.6
77.515
137.988
279.402
111.931
246.477
198.245
85.8317
177.328
157.081
79.3587
178.19
90.7992
123.196
219.644
269.625
171.262
188.962
276.324
88.0541
99.9264
262.077
127.816
120.028
77.6785
88.9296
98.0469
72.7716
69.0488
134.025
297.498
195.094
65.7747
117.586
79.9153
133.278
93.0653
239.44
172.046
99.1462
76.8421
66.0351
296.424
180.694
88.9863
89.5406
262.088
67.707
277.286
278.661
66.8405
275.643
283.812
71.6414
72.9636
274.594
123.984
85.3288
67.2468
62.0127
159.262
83.8342
126.468
172.337
62.515
70.5076
65.1136
96.2303
144.178
114.934
67.3645
254.509
73.02
299.999
85.1548
71.2488
88.4563
93.3111
267.726
76.8157
109.636
72.5625
103.215
133.953
71.013
275.706
94.7367
91.9141
143.923
115.427
182.714
92.5961
96.0038
199.224
191.422
90.6755
267.353
118.658
147.019
281.149
84.6054
89.5801
81.8812
107.108
72.2432
82.6027
96.5353
62.4962
68.4489
276.564
242.507
299.429
99.7208
245.987
281.635
93.2825
299.088
129.694
85.9555
171.216
157.48
80.0694
267.567
280.994
93.6117
83.7797
89.2454
75.1511
289.884
264.057
152.261
85.4712
260.573
100.643
71.1797
269.875
85.8735
142.259
102.844
225.507
130.598
271.532
96.0913
122.651
109.461
92.436
239.144
109.128
276.893
294.632
269.441
273.691
96.3306
81.014
92.6337
276.004
228.709
218.145
89.2825
78.312
173.179
106.63
80.8224
91.8932
254.08
161.085
162.732
262.218
299.975
172.111
150.939
274.75
281.311
262.977
80.8772
290.277
161.768
141.349
254.701
283.068
67.6712
64.45
73.9224
188.414
91.6112
103.38
116.9
71.9874
214.689
271.457
211.115
140.416
162.434
69.5553
229.584
75.5405
127.461
279.238
128.455
214.807
102.49
216.57
108.897
114.89
221.322
267.826
71.951
99.3661
69.5695
68.5175
172.737
152.362
271.993
258.529
299.994
83.9778
277.022
76.7289
123.176
65.447
72.4398
83.8998
65.0805
239.091
160.492
247.779
92.0751
111.491
104.409
127.927
278.585
165.375
154.633
94.1055
203.264
193.572
227.021
70.8449
192.468
120.348
96.9845
208.954
279.767
107.78
89.1184
278.073
283.405
83.2725
110.154
266.156
150.544
151.869
278.027
263.931
226.208
106.698
110.256
179.733
272.749
74.3702
158.084
118.877
125.495
111.909
208.336
101.035
123.414
279.054
111.901
262.919
103.739
263.61
261.711
203.045
78.57
70.2838
131.635
73.1242
84.0186
82.9565
67.8071
121.528
161.51
73.1769
76.8164
196.874
105.897
84.6236
240.238
138.624
91.3282
248.273
275.267
101.583
155.121
232.764
278.673
132.291
249.513
97.1852
94.9038
263.152
282.441
299.837
68.2778
153.139
271.26
119.23
257.415
247.238
107.839
74.8935
73.4626
88.9513
220.482
102.619
77.2998
72.0793
288.917
285.224
112.142
276.488
125.092
84.3162
165.829
218.379
107.059
281.721
107.904
127.595
76.5557
68.4071
299.008
106.389
274.111
278.274
78.034
79.6868
91.1271
104.444
265.229
78.5358
104.188
299.986
186.33
271.082
84.7145
268.702
194.416
185.174
153.133
84.481
76.0663
92.1436
186.883
279.549
158.068
76.2734
135.553
86.6719
177.876
90.5468
102.02
107.63
71.4282
281.13
268.015
99.2809
104.132
90.5341
89.2927
106.589
206.707
257.864
70.789
113.566
251.031
100.518
298.693
96.4265
98.9172
190.857
283.731
106.75
67.3892
73.6466
77.5794
111.608
105.934
91.438
100.119
79.9248
118.559
70.1015
74.6317
178.134
209.227
76.364
81.9596
174.709
76.744
71.9651
96.1792
90.8128
79.9733
278.131
76.5494
82.5235
285.496
117.567
191.658
276.694
287.261
111.569
166.461
225.426
283.554
228.334
278.023
298.751
111.848
292.099
110.058
81.149
89.2159
90.2831
104.579
178.154
217.31
99.1966
101.711
284.437
107.982
61.8174
92.1152
88.4898
74.291
193.017
99.296
87.4061
71.6397
144.131
68.4684
274.607
275.782
165.778
65.522
270.083
271.347
247.817
277.629
88.8413
112.027
158.828
166.478
76.3341
129.547
174.526
188.686
94.3143
89.3134
67.5744
92.9539
79.6842
91.2436
279.961
78.1852
75.4855
68.2631
259.816
166.684
90.1331
297.722
83.1218
89.0044
71.7034
72.4329
164.464
174.556
94.6563
281.518
296.033
280.144
68.7248
204.235
77.5949
78.4815
109.007
197.687
88.8413
90.2862
203.14
86.8836
276.776
88.5075
121.574
68.7962
297.177
67.9023
141.975
72.5478
177.19
87.0609
73.1204
281.58
295.79
236.906
281.1
68.3219
72.3353
75.121
91.2331
163.224
75.8528
92.091
278.882
68.9879
163.507
178.725
137.587
122.012
80.2499
172.286
87.5969
276.766
109.162
210.444
273.398
74.8271
104.409
91.5325
116.257
273.481
273.503
69.3822
250.816
77.7203
64.9458
278.288
110.088
145.281
207.357
194.685
84.0284
108.225
270.169
197.301
72.5386
176.748
92.5273
89.7926
200.557
84.6199
299.841
125.239
235.145
107.627
81.5574
218.007
81.6155
86.5136
217.276
263.885
77.2537
101.003
295.965
72.0058
263.545
287.235
272.491
100.177
86.5864
99.906
221.398
255.822
198.307
73.2044
92.008
138.119
229.136
99.582
108.565
84.2701
281.793
265.42
202.281
105.815
85.971
83.7654
181.432
179.999
68.9778
189.48
72.9273
146.285
109.947
115.717
175.949
119.139
88.6732
177.025
119.985
77.128
100.585
156.057
131.335
74.4159
78.7202
163.773
186.468
67.5388
179.446
297.266
264.428
114.977
257.043
278.894
92.9051
69.1168
264.403
202.744
79.4984
73.4002
72.3566
273.682
262.443
266.454
108.861
76.7092
76.0064
81.9741
92.8142
75.9687
135.866
141.729
240.486
274.707
127.967
72.431
199.889
267.636
82.5139
110.012
73.4192
73.3082
114.711
237.59
246.457
128.784
125.956
202.209
169.143
183.032
279.411
73.9316
170.463
264.855
287.333
179.558
264.67
216.073
261.38
63.2573
69.6262
69.3503
78.2934
69.762
281.78
80.0839
159.479
84.9535
116.068
73.0516
62.9748
153.456
90.3922
102.087
110.161
273.379
200.266
71.6283
72.919
204.37
86.3777
274.332
79.2171
105.619
185.067
103.329
188.084
78.7505
271.955
268.15
285.282
111.473
84.8094
85.2143
228.714
96.945
84.1308
102.389
285.193
61.62
133.34
120.917
122.771
93.6821
121.869
260.774
78.9486
79.86
67.0175
99.8279
84.4127
123.861
85.4693
75.8146
92.3625
92.2794
217.276
82.5275
287.012
225.044
111.186
81.2495
100.743
259.88
241.999
276.405
132.272
228.33
90.6224
108.511
256.78
106.691
279.942
220.891
79.2542
173.819
81.4268
275.271
77.0161
85.7385
288.774
282.035
175.758
279.448
76.3052
276.413
167.121
85.5855
170.66
162.549
94.9232
223.939
294.428
73.6415
145.662
85.0401
285.61
97.7196
76.1272
201.57
188.336
249.933
143.204
288.463
65.4282
107.687
80.0981
91.9847
75.9152
75.787
148.425
91.7872
121.846
289.941
119.751
272.275
245.319
239.701
129.418
212.865
142.629
107.21
83.9928
69.6858
76.1559
265.479
93.262
179.52
221.163
283.87
129.794
92.7631
165.206
78.6636
77.7235
101.495
81.0477
95.3065
72.9447
284.175
128.877
102.573
87.8819
154.834
79.5349
74.7632
115.551
274.754
70.0552
85.1802
195.667
267.547
76.2822
75.8443
66.5283
116.816
131.051
97.056
135.447
85.3423
90.7343
73.0269
83.12
171.559
219.686
109.697
131.442
95.0101
277.937
131.133
93.8542
136.543
195.864
279.96
134.182
92.5058
95.2294
75.066
114.847
300
67.4205
88.5558
271.58
80.9217
71.0773
67.6921
237.312
276.993
289.704
276.665
299.707
84.3535
256.835
108.488
108.296
160.893
65.0195
151.057
189.171
135.089
274.96
202.359
84.9535
181.113
98.346
126.243
106.217
278.848
159.225
93.0335
71.1933
115.799
128.997
87.5267
274.765
109.263
259.25
100.822
80.0434
299.124
69.7847
274.667
103.661
72.4455
76.3349
86.825
103.508
74.7859
100.651
70.5649
188.108
72.1926
68.7908
91.2373
84.1051
187.038
274.911
77.0036
90.9627
273.076
68.2575
70.8405
85.876
93.018
265.812
148.789
101.545
206.162
280.666
191.157
99.7097
90.8645
127.282
161.601
131.561
63.6927
96.5169
92.0957
94.2334
170.967
153.558
71.0235
106.022
123.03
267.621
88.8969
244.782
94.3154
280.022
80.1749
142.15
249.434
227.441
125.761
265.703
272.957
82.3601
232.782
164.558
190.921
281.817
91.0879
175.884
89.897
135.329
118.911
192.324
79.3836
181.708
74.0942
65.2891
281.667
274.324
201.546
103.912
245.256
80.2896
300
69.7975
158.195
104.987
82.9629
284.767
99.1254
183.646
83.8066
96.2542
140.068
138.456
60.8741
81.0232
65.9998
145.66
76.307
143.646
285.61
279.579
116.733
289.606
87.9694
170.001
89.0988
258.949
81.356
167.841
94.7455
81.5865
72.3244
86.0904
270.8
277.981
115.596
64.9333
275.537
83.1981
146.847
89.8224
106.775
93.5447
62.4036
67.1499
72.1712
289.954
179.348
110.596
129.181
298.986
107.665
213.668
86.8035
89.5296
137.805
299.766
91.932
93.48
268.454
170.06
299.981
68.0451
262.498
261.217
221.485
101.147
221.918
270.943
78.7428
144.349
285.119
85.3207
288.8
278.834
83.327
281.741
83.8397
272.596
103.64
146.197
84.5731
90.3825
135.424
207.86
261.112
121.642
71.1956
290.318
94.8787
97.0889
81.8394
84.7644
287.13
85.864
235.62
267.761
105.906
125.823
100.64
156.742
139.805
276.734
173.363
94.4697
275.988
151.788
135.548
224.072
85.7811
91.6559
224.613
264.129
274.909
93.3585
281.995
71.3776
103.026
152.37
256.003
104.244
97.9629
191.815
176.854
90.7133
168.929
88.7934
74.4417
107.576
141.71
275.912
62.0804
281.67
87.9669
65.4919
101.831
64.8401
212.556
77.4486
106.8
175.226
85.1915
87.7349
258.461
116.426
67.4998
254.771
130.499
103.58
145.409
217.121
285.192
299.081
95.4493
235.505
164.275
113.749
77.2015
95.4977
232.125
143.636
192.586
155.984
88.7463
75.708
76.8454
199.337
78.8663
248.529
107.819
187.503
68.6147
270.207
148.437
86.1101
86.7644
71.1105
89.4518
204.492
104.962
260.983
77.409
111.734
93.7468
69.6493
228.764
105.355
282.471
263.238
127.058
67.4121
89.8721
106.432
63.4042
101.781
272.166
155.734
93.1342
173.298
276.831
70.1224
81.1567
291.175
101.946
67.6686
154.169
86.7981
105.105
70.667
171.416
267.561
189.32
279.047
76.0317
281.228
188.567
206
273.593
103.165
285.122
195.592
163.855
115.089
66.3285
81.1067
67.7042
190.07
198.436
298.379
276.993
112.206
204.042
78.9129
268.251
79.1023
104.914
119.473
157.617
216.959
122.033
72.3909
105.325
89.3724
65.1626
76.2159
87.8748
124.561
120.506
186.507
164.471
108.825
120.639
258.835
93.5135
104.821
88.3435
119.163
273.556
181.598
93.2924
66.8163
201.017
102.332
90.665
275.476
237.051
99.4251
87.2852
106.054
292.401
279.765
84.6751
105.681
104.925
92.5327
103.439
74.6097
74.3459
284.037
93.773
179.024
248.435
142.463
141.916
277.761
99.2288
265.868
157.523
70.3956
243.283
165.268
159.841
278.685
70.4597
281.093
283.206
272.221
77.4246
297.322
151.366
115.054
105.531
89.7337
136.388
299.89
299.478
100.188
74.1001
103.934
109.744
279.898
172.513
195.506
291.039
261.836
69.8581
180.418
280.272
254.142
90.3333
282.378
142.726
103.079
90.2692
275.143
108.095
114.248
291.069
81.0262
126.948
280.664
178.569
109.067
289.294
73.9659
274.745
86.0487
160.14
141.085
199.685
101.229
74.6491
108.13
90.6661
118.729
90.2914
244.012
110.271
96.3345
263.679
69.234
117.487
81.2011
151.965
156.423
92.6386
67.6018
199.977
154.006
109.829
184.654
94.4859
113.48
111.623
71.2836
62.059
73.8164
288.311
126.69
140.617
177.942
246.393
214.739
295.369
115.414
214.696
105.692
161.066
153.265
217.995
95.3771
83.5951
261.5
226.928
71.1063
169.717
75.7474
280.474
234.831
74.994
89.7656
165.309
196.337
294.937
168.494
95.9178
68.7154
81.4946
64.8365
222.284
75.3978
209.467
257.1
172.386
123.349
249.54
230.431
90.6866
174.012
142.29
269.462
298.01
109.365
258.612
297.485
299.802
226.952
269.602
85.9731
236.261
91.7458
166.922
88.791
90.2877
171.688
124.579
107.972
81.9772
209.073
97.3518
115.114
70.0932
251.896
210.169
100.703
284.296
72.3278
273.72
299.118
299.838
73.4237
164.372
192.647
89.747
77.3367
102.824
280.727
164.755
276.282
267.701
66.5326
61.7411
97.9347
69.5014
61.3475
207.172
74.3621
196.908
64.1688
102.826
135.707
231.059
88.3313
76.8768
227.541
107.202
118.133
105.228
153.956
155.032
248.973
145.501
209.901
92.3873
142.704
78.4651
237.742
200.52
145.647
155.831
85.7349
184.038
265.827
115.733
130.948
214.98
156.911
79.8378
171.496
99.2574
71.7308
76.1093
233.47
290.349
86.8831
91.921
67.8317
69.9084
69.5801
68.4732
68.0978
253.219
265.507
240.925
263.656
233.382
245.926
87.8831
69.4404
108.041
107.623
113.712
69.2895
67.3799
116.869
245.366
74.5434
103.863
204.839
114.682
141.355
79.2239
111.269
69.8017
166.514
102.266
74.824
274.485
86.169
194.616
175.668
65.1573
73.255
90.4006
253.275
289.681
276.467
88.033
228.591
118.786
92.2227
101.225
115.912
127.968
298.87
279.873
95.0688
86.3726
265.483
254.427
72.8686
291
263.32
85.8303
118.142
282.909
265.466
136.816
101.694
130.383
260.743
143.951
191.92
127.992
224.703
114.843
276.414
164.018
75.6794
275.44
100.703
123.921
84.4419
168.892
83.888
75.485
113.442
124.981
144.169
107.71
281.528
70.4919
269.222
269.32
73.5839
158.851
265.985
257.638
274.053
146.341
73.2678
107.733
109.635
117.935
86.8166
162.36
159.528
144.601
277.347
234.728
88.7037
80.0938
110.748
263.236
129.618
68.0219
65.1871
106.06
194.331
260.407
109.627
115.585
94.0275
137.857
225.705
94.8151
168.981
85.6531
78.3121
279.294
269.482
98.3243
153.212
270.869
146.187
271.824
102.581
243.773
99.15
275.438
160.039
171.161
298.836
217.563
292.181
93.951
101.677
109.436
68.4491
120.333
91.658
130.287
69.5792
113.229
144.559
126.929
136.358
187.54
262.941
284.907
205.51
280.907
291.388
285.048
106.641
68.4382
178.04
273.375
95.0255
92.4658
85.1782
100.228
75.7183
90.9114
96.769
259.942
271.811
241.874
152.713
92.8886
80.4784
77.5134
283.271
218.212
120.499
85.1383
264.853
101.501
172.162
270.106
74.1815
81.1333
86.4375
77.0101
109.513
78.3707
150.411
74.0789
285.397
156.676
122.49
285.357
228.419
260.809
294.169
294.268
204.88
281.501
81.0905
202.649
271.916
71.2089
227.848
270.551
209.546
217.227
164.161
197.592
104.038
170.093
76.923
75.2121
95.0516
87.9254
116.329
89.7889
68.8837
85.5135
192.342
87.7071
153.977
165.793
94.9196
74.3954
76.7525
74.4498
90.3761
122.915
69.7626
90.6293
73.7697
127.468
172.102
105.677
126.569
212.437
89.1719
103.848
285.742
283.522
141.423
117.536
186.061
136.888
238.032
86.0987
117.924
71.4675
219.316
99.352
223.631
134.448
90.0122
185.938
153.002
122.212
75.4709
297.723
249.983
90.3144
142.196
110.512
178.166
280.467
146.886
265.618
206.12
143.484
87.3671
88.4004
61.7708
297.156
163.207
262.938
120.848
105.03
272.065
227.807
71.1654
284.662
110.026
270.774
87.1218
75.9665
196.226
91.1312
272.184
69.9791
111.533
230.586
146.218
216.271
212.619
136.005
144.799
93.2975
112.833
91.5079
109.838
193.965
251.568
246.184
299.449
278.983
68.4539
78.4234
89.5658
181.13
91.6583
215.454
120.789
299.734
134.034
72.7371
81.2656
190.929
83.1097
148.644
260.947
204.13
100.967
242.304
277.967
88.0879
211.292
129.281
103.286
117.76
207.547
69.5049
109.976
273.28
269.21
229.355
206.317
299.966
126.418
86.7414
78.554
139.355
175.194
238.805
90.6454
110.093
93.7586
97.9949
200.47
280.042
93.1717
270.63
129.664
107.386
113.791
67.2783
86.046
167.044
79.1982
175.176
270.421
189.056
103.549
135.13
249.133
65.8989
65.2141
117.168
133.759
91.0571
135.232
146.147
75.7526
267.97
97.4307
299.969
67.955
274.44
177.917
230.379
125.193
91.2311
270.309
215.949
265.635
72.7799
112.541
119.395
188.229
71.0783
144.174
112.031
95.3
272.351
265.834
156.935
76.3987
92.7993
80.8017
112.196
268.593
67.6288
129.66
269.749
204.816
191.783
228.381
269.951
79.1709
281.393
172.531
283.685
141.286
85.579
82.137
153.734
262.471
82.3782
173.993
220.662
141.026
130.576
103.722
241.222
276.494
89.5156
101.015
172.141
197.743
241.919
167.284
265.81
79.9318
67.5412
136
224.052
159.406
87.8419
299.996
85.7285
191.321
290.651
84.0448
191.314
226.068
115.725
98.2658
61.191
61.7907
73.743
228.477
62.7234
161.69
66.3953
151.405
66.9226
216.842
75.3003
63.7272
95.8949
169.409
160.221
138.865
111.454
109.911
86.2541
85.2569
75.5449
270.221
96.6904
299.952
299.373
174.252
269.918
85.6327
70.1877
199.593
172.067
124.166
257.025