/*--------------------------------*- C++ -*----------------------------------*\
  =========                 |
  \\      /  F ield         | OpenFOAM: The Open Source CFD Toolbox
   \\    /   O peration     | Website:  https://openfoam.org
    \\  /    A nd           | Version:  8
     \\/     M anipulation  |
\*---------------------------------------------------------------------------*/
FoamFile
{
    version     2.0;
    format      ascii;
    class       volVectorField;
    location    "7e-05";
    object      U;
}
// * * * * * * * * * * * * * * * * * * * * * * * * * * * * * * * * * * * * * //

dimensions      [0 1 -1 0 0 0 0];

internalField   nonuniform List<vector> 
23640
(
(-679.146 2465.21 0)
(-215.001 2883.28 0)
(455.411 358.492 0)
(-18.429 127.496 0)
(403.685 2649.72 0)
(-472.792 1592.17 0)
(-139.997 2787.15 0)
(-202.77 2371.62 0)
(-254.705 2503.26 0)
(1996.83 752.783 0)
(-35.0462 439.746 0)
(962.659 2560.81 0)
(280.76 2640.63 0)
(386.523 2637.06 0)
(-975.751 996.61 0)
(-272.008 1487.6 0)
(1095.12 2457.42 0)
(-94.7604 1056.21 0)
(42.4244 745.848 0)
(-1409.04 2168.9 0)
(-86.2447 529.03 0)
(524.759 201.44 0)
(-83.1472 543.343 0)
(133.024 484.613 0)
(-373.127 2579.77 0)
(296.028 2737.15 0)
(-101.823 2141.08 0)
(818.588 2376.83 0)
(1240.67 2449.58 0)
(527.133 2464.29 0)
(134.174 2684.63 0)
(-5.16773 5.05914 0)
(-90.279 524.288 0)
(-1306.36 2315.57 0)
(-1805.55 1663.98 0)
(-1089.1 782.272 0)
(1036 2429.1 0)
(1060.55 2436.23 0)
(1257.16 585.366 0)
(92.6887 336.289 0)
(1396.72 2297.39 0)
(-244.322 2440.44 0)
(462.268 2634.23 0)
(-1455.9 959.884 0)
(-12.0472 81.4023 0)
(934.03 1709.85 0)
(562.949 2634.92 0)
(579.415 2643.43 0)
(1997.47 760.924 0)
(-171.724 2344.09 0)
(3.4565 18.9822 0)
(-57.7402 1029.21 0)
(-1247.59 651.819 0)
(-677.931 2568.66 0)
(-16.1566 125.621 0)
(603.682 139.164 0)
(-777.93 2031.12 0)
(-244.835 2630.67 0)
(42.6702 2851.88 0)
(29.7884 92.5794 0)
(97.6869 2673.1 0)
(-584.476 1910.06 0)
(40.7931 245.116 0)
(-55.6622 987.151 0)
(200.62 2831.02 0)
(-59.3813 993.7 0)
(-222.877 1503.84 0)
(-372.961 2576.6 0)
(110.555 1096.15 0)
(449.139 2640.31 0)
(74.9687 258.327 0)
(-1236.17 2306.84 0)
(-143.394 721.534 0)
(-883.517 2534.8 0)
(377.895 1582.66 0)
(-6.8886 6.55368 0)
(-210.731 38.4882 0)
(306.759 2634.38 0)
(42.6314 734.596 0)
(-36.7036 265.638 0)
(856.044 1651.52 0)
(1683 1541.84 0)
(179.482 2787.84 0)
(200.806 2782.67 0)
(174.453 2850.61 0)
(-1384.29 392.961 0)
(-60.6151 1037.62 0)
(90.1526 303.873 0)
(-165.968 622.456 0)
(-957.258 1037.06 0)
(-224.917 2830.07 0)
(-264.818 2640.97 0)
(-1720.67 1321.15 0)
(-120.698 719.592 0)
(15.3075 1056.47 0)
(42.1557 2610.17 0)
(-55.0537 960.222 0)
(828.362 266.831 0)
(-79.3735 2367.32 0)
(-1847.72 1092.58 0)
(1993.35 1171.62 0)
(-692.775 2571.43 0)
(130.193 447.35 0)
(1273.01 2473.75 0)
(1906.98 1601.89 0)
(1105.84 2408.88 0)
(42.9921 155.011 0)
(-884.621 2512.36 0)
(-547.407 2654.1 0)
(-44.6164 2424.6 0)
(269.986 2680.67 0)
(-138.457 717.895 0)
(223.397 2634 0)
(1390.12 2278.94 0)
(1551.68 1297.35 0)
(-1350.66 2316.22 0)
(-961.997 931.54 0)
(-398.047 2679.35 0)
(-719.647 2434.73 0)
(485.28 2470.48 0)
(102.626 357.464 0)
(2.42761 31.6385 0)
(743.775 354.735 0)
(0.118349 31.7734 0)
(981.715 2108.31 0)
(109.34 384.602 0)
(4.08163 16.0499 0)
(1815.27 1213.33 0)
(-455.387 1684.18 0)
(1321.94 2330.57 0)
(204.107 2429.92 0)
(1821.15 1491.63 0)
(197.35 2646.75 0)
(-681.854 2177.55 0)
(-1195.6 2358.58 0)
(76.1539 258.897 0)
(-70.6214 463 0)
(-370.481 2576.56 0)
(32.9432 451.437 0)
(-61.373 908.016 0)
(-74.8332 2389.7 0)
(-782.972 1965.31 0)
(-151.262 738.487 0)
(-30.3323 437.686 0)
(171.872 721.874 0)
(-135.016 2563.69 0)
(-51.368 389.242 0)
(86.8045 340.244 0)
(-251.892 2826.82 0)
(159.256 1015.54 0)
(-112.279 2306.3 0)
(251.878 990.769 0)
(258.089 2751.01 0)
(-11.5738 196.469 0)
(1382.43 2047.36 0)
(-1317.79 2318.04 0)
(-129.04 2796.44 0)
(-508.382 2605.28 0)
(209.771 1660.99 0)
(-75.7992 2133.7 0)
(-783.58 863.351 0)
(-1470.28 504.397 0)
(-1115.64 782.953 0)
(-202.592 1754.99 0)
(1293.15 2384.14 0)
(1385.86 2364.51 0)
(57.3807 198.456 0)
(-1364.67 1457.34 0)
(41.6053 154.524 0)
(1853.37 1500.22 0)
(589.988 2655.6 0)
(1678.16 1226.4 0)
(356.281 1642.05 0)
(-589.602 2649.84 0)
(46.749 202.305 0)
(-48.0211 198.701 0)
(1331.13 2328.74 0)
(1482.95 1113.15 0)
(-37.0827 260.905 0)
(-293.373 2528.24 0)
(-9.88686 82.4062 0)
(727.389 160.784 0)
(-384.981 2575.21 0)
(-905.588 2423.38 0)
(1225.22 2406.17 0)
(250.951 1504.77 0)
(-794.073 2224.47 0)
(-1857.15 1371.93 0)
(-34.204 101.84 0)
(-896.174 2401.36 0)
(-395.518 2253.99 0)
(57.6909 422.729 0)
(-7.66816 38.8377 0)
(225.796 2763.87 0)
(914.399 2500.5 0)
(94.6682 333.123 0)
(1917.97 1577.62 0)
(-715.702 1593.97 0)
(1131.65 376.602 0)
(1265.61 1747.88 0)
(-9.3337 601.934 0)
(1605.84 1108.56 0)
(1058.22 2436.7 0)
(-242.235 2453.34 0)
(-68.405 676.909 0)
(142.158 2845.94 0)
(961.766 325.571 0)
(-87.3587 538.489 0)
(1764.14 1104.33 0)
(54.4932 199.244 0)
(390.656 2630.27 0)
(-391.614 2582.43 0)
(77.5864 2536.6 0)
(164.995 2867.7 0)
(305.499 610.083 0)
(-31.0271 2555.97 0)
(539.895 2637.66 0)
(-1372.08 2194.73 0)
(-210.198 2083.6 0)
(-1723.42 1354.95 0)
(-14.3075 2542.1 0)
(49.5313 439.159 0)
(-15.38 598.21 0)
(980.38 2525.18 0)
(-136.899 513.762 0)
(152.502 2654.98 0)
(-371.939 2721.9 0)
(2.49164 30.2282 0)
(-1752.33 1301.33 0)
(-221.65 2826.18 0)
(-580.107 2498.65 0)
(-960.813 2459.47 0)
(1391.87 2138.36 0)
(-417.374 2633.52 0)
(-494.299 2619.86 0)
(1675.18 1593.42 0)
(72.1702 265.675 0)
(-21.5471 2550.95 0)
(-249.434 2826.08 0)
(1036.97 1494.82 0)
(1952.76 1219.25 0)
(-1370.94 1317.82 0)
(1391.97 2279.07 0)
(-244.446 2399.93 0)
(-16.9319 139.09 0)
(776.6 2624.99 0)
(224.328 2398.46 0)
(904.264 245.212 0)
(-3.13065 258.23 0)
(118.487 415.226 0)
(28.3336 87.9578 0)
(831.75 2615.49 0)
(550.137 2582.2 0)
(47.0387 198.783 0)
(66.2343 2845 0)
(91.3857 332.801 0)
(-834.635 376.336 0)
(-897.898 2496.61 0)
(-38.6242 140.07 0)
(-40.2035 143.338 0)
(-18.2858 98.0077 0)
(617.683 2597.96 0)
(1960.59 1334.89 0)
(-472.438 2678.19 0)
(1399.82 2055.48 0)
(473.252 2641.43 0)
(512.812 2174.78 0)
(-101.967 2321.9 0)
(67.5951 2848.78 0)
(37.5938 1088.36 0)
(1967.21 1147.82 0)
(1476.18 2213.21 0)
(94.734 317.766 0)
(-33.0482 99.6937 0)
(1840.24 1158.33 0)
(-1194.85 2374.87 0)
(1231.23 2383.94 0)
(3.05493 31.6926 0)
(9.61233 983.635 0)
(-607.873 2650.41 0)
(108.734 369.643 0)
(1662.08 1767.44 0)
(303.605 1512.79 0)
(-24.0956 413.929 0)
(-348.394 2156.95 0)
(706.564 1850.51 0)
(-19.78 2194.91 0)
(680.104 1184.08 0)
(-425.577 2709.76 0)
(-22.8175 420.189 0)
(-202.144 2556.7 0)
(-1013.24 2444.7 0)
(-67.5082 2573.75 0)
(-216.068 1981.42 0)
(33.7821 457.985 0)
(250.678 2413.97 0)
(1290.47 2372.3 0)
(-830.221 2459.65 0)
(294.003 2712.42 0)
(1075.59 2417.42 0)
(-1316.08 1463.67 0)
(-58.957 966.748 0)
(1.61511 29.2469 0)
(-234.381 2588.11 0)
(-73.9118 483.32 0)
(1350.38 2398.63 0)
(1766.83 1576.94 0)
(-985.596 1867.38 0)
(-16.5008 108.947 0)
(-155.543 727.704 0)
(942.161 2590.76 0)
(1814.61 1228.22 0)
(-46.5205 200.734 0)
(89.6395 735.615 0)
(-33.8257 611.796 0)
(571.575 2165.51 0)
(-1885.13 1388.17 0)
(-604.82 336.471 0)
(16.1288 1035.79 0)
(-368.9 1891.49 0)
(780.561 2281.51 0)
(-1191.89 2401.05 0)
(-1828.78 1635.91 0)
(805.077 2401.05 0)
(-1184.36 2360.94 0)
(-1949.5 1079.87 0)
(36.2437 116.226 0)
(-141.682 2470.26 0)
(646.407 2193.72 0)
(8.83297 10.7712 0)
(-343.774 1474.28 0)
(-232.999 2398.27 0)
(-917.67 2419.56 0)
(-598.514 2361.92 0)
(-71.3407 2483.92 0)
(-227.778 2588.29 0)
(992.219 258.55 0)
(1977.93 1201.46 0)
(243.565 2399.64 0)
(293.176 2712.71 0)
(-1113.34 305.298 0)
(-172.898 829.376 0)
(1349.44 2066.91 0)
(-4.7742 36.0326 0)
(81.7376 410.286 0)
(-78.0948 1090.63 0)
(-728.655 1936.52 0)
(850.517 2564.05 0)
(229.748 2652.28 0)
(1369.65 2192.89 0)
(-40.5278 145.051 0)
(-1990.11 1021.21 0)
(-897.715 2552.71 0)
(-367.511 2688.7 0)
(-1813.66 1660.07 0)
(1279.17 2456.31 0)
(-107.323 2297.26 0)
(-864.081 2539.1 0)
(43.9395 244.543 0)
(45.8632 434.179 0)
(-753.666 2249.03 0)
(-58.0616 503.773 0)
(-66.7946 914.008 0)
(1110.08 2383.71 0)
(-60.731 2566.96 0)
(1624.11 1833.05 0)
(1503.86 2198.99 0)
(2018.52 1030.07 0)
(23.5547 735.572 0)
(-496.751 2480.93 0)
(-1730.03 1148.87 0)
(180.938 684.953 0)
(942.743 2587.61 0)
(-33.4613 602.814 0)
(989.066 2124.14 0)
(-898.694 2553.41 0)
(29.2259 86.4035 0)
(-1170.07 947.181 0)
(-136.462 2467.7 0)
(417.552 2193.35 0)
(139.458 735.078 0)
(182.756 710.168 0)
(-41.0486 2542.64 0)
(-165.727 843.52 0)
(-42.2604 2455.06 0)
(-1256.51 2285.58 0)
(-1786.23 1040.83 0)
(1455.38 2355.55 0)
(92.7762 343.34 0)
(-1526.11 2180.2 0)
(6.16623 1150.51 0)
(-474.014 1348.51 0)
(-353.604 65.9188 0)
(-1377.4 749.09 0)
(-1411.16 1781.47 0)
(120.51 439.857 0)
(-6.26052 36.1902 0)
(1145.19 2377.32 0)
(576.946 2584.7 0)
(-909.828 1893.33 0)
(-1190.92 1407.24 0)
(47.9243 168.206 0)
(741.732 1844.52 0)
(1398.33 2289.55 0)
(366.748 2617.67 0)
(-292.653 2733.19 0)
(32.3006 122.641 0)
(1175.04 2445.46 0)
(1427.73 1112.24 0)
(155.077 1819.52 0)
(-684.036 1581.1 0)
(-5.93906 261.073 0)
(-43.9329 172.188 0)
(-412.232 2359.81 0)
(-46.7437 387.685 0)
(1340.75 2336.57 0)
(767.905 1839.5 0)
(-101.513 2638.96 0)
(665.592 2185.83 0)
(1311.53 2255.16 0)
(-38.5208 142.349 0)
(14.2813 1134.95 0)
(397.076 2704.93 0)
(-643.976 1384.38 0)
(2040.56 825.236 0)
(-1286.93 2309.44 0)
(-2.27216 34.4494 0)
(694.296 325.187 0)
(-60.7879 497.466 0)
(25.6445 2011.33 0)
(1242.77 2214.57 0)
(12.6463 69.4438 0)
(-54.9565 205.534 0)
(-91.089 555.27 0)
(-16.2817 2372.63 0)
(78.4593 406.704 0)
(-1670.47 1200.38 0)
(1012.5 877.822 0)
(1227.46 1448.35 0)
(32.4428 97.2503 0)
(-654.985 2356.24 0)
(48.8117 239.891 0)
(812.209 524.191 0)
(-1978.93 737.816 0)
(-236.441 1707.85 0)
(-193.413 2020.93 0)
(-826.574 1903.38 0)
(1913.13 1134.9 0)
(18.7191 552.807 0)
(2023.94 1013.51 0)
(-0.237708 0.704597 0)
(-202.668 1685.02 0)
(45.0861 196.259 0)
(-453.142 1545.85 0)
(-7.32606 1188.22 0)
(-1304.04 2318.88 0)
(-454.242 2738.08 0)
(1757.76 1569.25 0)
(-38.7045 136.038 0)
(1796 944.098 0)
(653.506 2184.1 0)
(-341.234 2172.16 0)
(744.919 2537.72 0)
(0.370327 0.0854454 0)
(1311.35 992.496 0)
(493.367 2463.28 0)
(-1399.5 1047.79 0)
(356.79 97.3883 0)
(-2066.58 1023.99 0)
(-406.916 2251.8 0)
(142.719 2440.24 0)
(-378.438 2539.86 0)
(-16.174 95.1722 0)
(1425.95 1450.21 0)
(1045.56 1983.44 0)
(-710.934 1818.27 0)
(452.597 2612.24 0)
(3.36482 2.82705 0)
(1830.78 1243.57 0)
(-2.36274 44.3929 0)
(-185.154 2228.69 0)
(-1424.44 2175.76 0)
(-213.727 2565.25 0)
(-2011.99 773.926 0)
(850.83 1199.04 0)
(1827.39 1038.1 0)
(-119.004 524.076 0)
(1715.87 1286.46 0)
(-137.297 2678.64 0)
(-583.307 2559.87 0)
(355.167 2200.85 0)
(-3.65806 51.058 0)
(577.997 2562.77 0)
(110.193 414.219 0)
(-169.523 2492.95 0)
(-291.428 2733.16 0)
(-1734.74 1353.26 0)
(-413.314 1493.23 0)
(1715.4 1153.61 0)
(1014.94 2395.77 0)
(150.406 2605.75 0)
(-24.0695 309.129 0)
(-1289.52 2293.54 0)
(-182.064 2589.16 0)
(-60.2997 2592.7 0)
(49.9931 2865.74 0)
(-1403.81 1784.64 0)
(1025.14 2544.35 0)
(-1029.66 2448.11 0)
(446.459 2605.73 0)
(847.364 1738.39 0)
(766.532 2257.69 0)
(-1688.64 614.845 0)
(-1514.08 447.223 0)
(-95.4137 569.668 0)
(-570.136 2660.92 0)
(698.189 2556.2 0)
(1004.04 2501.69 0)
(-239.417 2375.6 0)
(-32.9818 380.995 0)
(-678.323 1420.76 0)
(24.9351 1221.71 0)
(-0.0778114 0.318173 0)
(-744.449 766.274 0)
(-310.461 2699.39 0)
(272.774 2630.63 0)
(112.576 600.107 0)
(613.939 2236.91 0)
(134.929 727.966 0)
(46.4627 2851.71 0)
(-344.238 2715.92 0)
(-135.956 516.35 0)
(1702.33 1365.27 0)
(-281.984 430.479 0)
(-721.355 197.821 0)
(-127.116 2631.89 0)
(-1375.05 714.778 0)
(1946.24 1293.07 0)
(-812.691 2560.11 0)
(838.829 2479.55 0)
(-17.7182 1587.98 0)
(-192.477 2583.21 0)
(-143.796 2475.04 0)
(399.112 2704.46 0)
(595.791 2638.43 0)
(491.106 2594.9 0)
(-773.448 800.873 0)
(169.88 686.727 0)
(459.402 2519.76 0)
(464.252 2522.97 0)
(1119.27 1483.46 0)
(-420.564 2647.78 0)
(-621.817 151.979 0)
(-1705.65 1289.55 0)
(1279.69 1429.5 0)
(-544.551 2546.87 0)
(294.169 2628.68 0)
(-1365.04 1264.21 0)
(-66.3826 467.785 0)
(44.7175 204.015 0)
(153.689 1333.73 0)
(-88.8029 382.193 0)
(-189.173 2588.88 0)
(1273.86 1722.48 0)
(-63.1209 861.249 0)
(-86.014 556.51 0)
(325.674 1794.46 0)
(70.0063 640.989 0)
(1359.22 1315.03 0)
(1636.88 857.275 0)
(0.494319 0.842159 0)
(414.203 2622.37 0)
(-174.262 2493.19 0)
(-1199.96 2387.1 0)
(-537.253 2637.14 0)
(29.9944 738.748 0)
(834.61 368.653 0)
(-1439.08 408.362 0)
(1993.55 1320.5 0)
(648.052 2478.54 0)
(10.1298 66.7452 0)
(7.76861 2476.63 0)
(-855.686 2519.77 0)
(621.263 2230.56 0)
(87.1198 726.234 0)
(165.812 599.868 0)
(37.9014 1719.12 0)
(1972.11 1319.61 0)
(335.905 2737.99 0)
(64.9637 636.612 0)
(-16.8511 253.394 0)
(380.472 2531.4 0)
(1401.3 2316.22 0)
(-230.612 2401.15 0)
(48.8338 2865.52 0)
(21.5037 1020.18 0)
(-1384.94 2202.41 0)
(-756.093 2143.38 0)
(-392.54 2529.39 0)
(-2056.06 991.58 0)
(-42.5212 392.48 0)
(18.3738 545.261 0)
(-38.28 135.677 0)
(1768.76 1278.56 0)
(-491.879 2507.47 0)
(1249.04 383.62 0)
(-1333.98 1716.74 0)
(943.444 2135.32 0)
(-512.363 2653.14 0)
(117.442 605.201 0)
(534.123 2430.59 0)
(-112.967 2302.2 0)
(796.373 2578.23 0)
(-145.723 2490.42 0)
(-473.125 1637.58 0)
(-1382.4 1728.68 0)
(-804.367 282.869 0)
(-43.589 2539.66 0)
(631.589 2623.08 0)
(0.066098 33.4965 0)
(-64.6969 683.984 0)
(1282.01 2369.26 0)
(-311.833 2613.63 0)
(-16.4059 249.056 0)
(-496.062 2648.67 0)
(29.4379 1063.64 0)
(953.377 2576.13 0)
(-38.6374 588.924 0)
(-276.778 2582.07 0)
(791.835 517.042 0)
(1579.59 1921.14 0)
(104.043 2247.03 0)
(-1185.49 1170.49 0)
(-309.798 2530.72 0)
(-1705.44 1599.4 0)
(-18.6359 109.116 0)
(42.3911 2610.16 0)
(960.681 2565.41 0)
(1181.14 2367.12 0)
(993.012 876.926 0)
(-235.61 2405.17 0)
(605.626 278.279 0)
(-90.0344 374.771 0)
(92.4989 2656.05 0)
(850.789 230.893 0)
(10.732 2471.92 0)
(-39.0154 597.803 0)
(-852.554 2095.61 0)
(-1301.74 2354.49 0)
(848.735 2558.91 0)
(-1648.89 1278.43 0)
(4.79731 34.1069 0)
(174.335 711.959 0)
(-176.818 2829.59 0)
(-1398.97 2186.83 0)
(-36.2179 108.733 0)
(1707.31 1143.41 0)
(-117.528 517.237 0)
(436.756 2602.61 0)
(7.91698 1218.85 0)
(-192.724 2582.61 0)
(-1060.21 1712.12 0)
(-1357.24 2312.75 0)
(-1926.67 1057.94 0)
(213.842 81.7338 0)
(-224.046 66.2359 0)
(628.838 2100.17 0)
(-8.24389 42.4572 0)
(172.643 668.583 0)
(-349.659 1990.69 0)
(2.74841 31.1716 0)
(44.971 2486.24 0)
(-373.151 2721.96 0)
(-1295.68 1332.22 0)
(-6.52546 958.122 0)
(754.314 2612.16 0)
(-173.613 2630.35 0)
(386.012 2652.37 0)
(-557.744 2573.06 0)
(-23.6835 304.692 0)
(28.9859 85.6699 0)
(18.1336 2463.5 0)
(288.189 2648.69 0)
(1495.18 902.217 0)
(-497.088 2627.83 0)
(-1273.67 2329.37 0)
(-28.9509 119.423 0)
(-1475.29 2258.18 0)
(923.851 1629.29 0)
(-4.71131 34.9767 0)
(1260.73 2439.42 0)
(839.73 184.951 0)
(-20.3787 1210.62 0)
(379.504 2647.41 0)
(39.5125 1248.39 0)
(1197.24 2314.91 0)
(689.236 1199.09 0)
(978.171 2481.75 0)
(111.635 419.245 0)
(150.94 2653.22 0)
(-0.191332 0.345658 0)
(-6.7171 975.929 0)
(1481.89 2190.56 0)
(105.552 447.547 0)
(1185.41 2373.02 0)
(-275.056 2633.94 0)
(85.3473 331.422 0)
(1669.77 1467.12 0)
(-81.3046 314.619 0)
(1327.77 1906.47 0)
(-119.844 708.166 0)
(93.3713 366.269 0)
(1823.8 1063.92 0)
(-1775.1 1623.59 0)
(-486.869 180.718 0)
(-935.46 794.117 0)
(576.174 1439.26 0)
(-649.31 2717.82 0)
(-95.8382 561.827 0)
(653.192 409.512 0)
(1930.71 1473.62 0)
(-700.015 1847.22 0)
(1962.14 1188.02 0)
(1706.76 1662.53 0)
(-1183.01 2197.37 0)
(282.78 356.448 0)
(-1478.51 2100.81 0)
(857.135 2640.28 0)
(-1790.79 1797.47 0)
(-16.1508 149.628 0)
(84.1801 2540.04 0)
(-1034.56 2453.95 0)
(42.6592 300.553 0)
(-99.8403 381.481 0)
(1310.71 2319.88 0)
(230.521 2656.22 0)
(194.959 106.327 0)
(1348.07 2333.03 0)
(38.7181 292.138 0)
(11.1974 2504.76 0)
(-9.94842 1746.33 0)
(-557.309 2681.95 0)
(36.5856 287.879 0)
(-1896.28 1004.7 0)
(1237.78 2549.1 0)
(257.026 1392.47 0)
(-922.755 2501.11 0)
(186.461 863.085 0)
(1051.87 2588.27 0)
(-555.238 2501.17 0)
(147.831 1450.78 0)
(1504.46 2210.2 0)
(-166.28 2522.35 0)
(-584.813 2550.77 0)
(465.198 2566.47 0)
(3.64566 3.56749 0)
(187.496 2241.66 0)
(-886.993 2487.54 0)
(-51.2414 1064.6 0)
(80.3379 292.359 0)
(-536.379 2636.82 0)
(52.5558 2847.06 0)
(-63.5459 1241.27 0)
(-48.7401 2520.21 0)
(-31.4841 128.268 0)
(633.189 216.538 0)
(-28.7435 384.906 0)
(1041.06 2402.88 0)
(128.437 831.892 0)
(-1189.11 2209.08 0)
(747.977 1307.22 0)
(566.725 2541.4 0)
(-1002 1711.99 0)
(380.102 2618.76 0)
(161.23 584.121 0)
(432.292 2599.37 0)
(-44.9848 171.314 0)
(29.9884 2479.3 0)
(-13.0217 1192.96 0)
(-1048.53 400.194 0)
(-1942.75 1350.79 0)
(2.88759 30.2804 0)
(710.682 424.628 0)
(-1129.53 420.051 0)
(801.508 293.181 0)
(2.86415 52.0345 0)
(-891.417 2087.97 0)
(1166 2493.15 0)
(-1018.02 2309.04 0)
(95.4439 2635.4 0)
(1502.6 1551.76 0)
(-1223.46 897.214 0)
(170.965 765.278 0)
(-231.435 2587.15 0)
(1643.76 1580.42 0)
(115.164 434.744 0)
(-11.436 776.578 0)
(-49.5491 268.357 0)
(933.834 2470.54 0)
(-87.2069 319.796 0)
(-209.432 2359.74 0)
(-881.359 1869.29 0)
(-197.007 2507.59 0)
(271.816 2677.6 0)
(2045.51 1057.87 0)
(35.4445 106.115 0)
(-644.714 2717.32 0)
(80.0604 725.349 0)
(-60.181 338.969 0)
(-585.573 2488.1 0)
(-1551.12 575.513 0)
(136.104 525.449 0)
(-446.108 2649.53 0)
(33.4601 122.194 0)
(1350.9 386.658 0)
(594.04 2182.63 0)
(-273.74 2780.61 0)
(-188.599 648.147 0)
(-887.085 990.945 0)
(-625.223 2618.66 0)
(-4.33615 2473.36 0)
(173.279 50.5329 0)
(136.802 460.729 0)
(762.357 2399.69 0)
(359.629 286.532 0)
(88.5997 331.635 0)
(351.906 2424.68 0)
(889.622 2506.01 0)
(1955.33 1217.79 0)
(52.072 1237.13 0)
(-461.098 2560.31 0)
(194.106 2242.04 0)
(1173 2366.77 0)
(36.1388 961.548 0)
(350.871 2626.17 0)
(48.2457 2501.52 0)
(403.942 1674.34 0)
(-188.414 1688.07 0)
(-1003.26 805.745 0)
(-493.631 2575.48 0)
(47.8174 956.944 0)
(-438.898 2204.55 0)
(-2.95441 482.184 0)
(338.664 2521.73 0)
(1284.64 2264.61 0)
(-1272.06 2314.33 0)
(-12.2571 192.882 0)
(-462.121 2560.2 0)
(75.7392 290.406 0)
(387.631 2634.13 0)
(184.773 2566.04 0)
(-96.0821 2658.44 0)
(-1222.88 1198.22 0)
(351.548 2336.29 0)
(-22.6467 782.44 0)
(0.505562 1.5247 0)
(104.051 2245.25 0)
(-1717.79 1541.89 0)
(-229.723 2362.6 0)
(-1962.66 1242.58 0)
(1250.63 1962.15 0)
(631.621 2450.72 0)
(-441.479 2511.56 0)
(44.4292 149.439 0)
(-486.627 1935.23 0)
(397.957 2612 0)
(-1.57153 489.047 0)
(-1104.23 2424.22 0)
(-11.5647 61.5626 0)
(846.186 619.609 0)
(-1877.91 1119.83 0)
(-82.1171 308.762 0)
(48.9875 248.081 0)
(-57.724 476.842 0)
(0.688161 1.97966 0)
(-1196.74 2208.77 0)
(36.2362 116.776 0)
(-971.916 1444.01 0)
(1206.15 2333.61 0)
(-1528.31 2178.85 0)
(-1947.03 1372.71 0)
(-358.077 2563.89 0)
(52.8535 963.349 0)
(107.992 2679.06 0)
(-1876.99 1001.67 0)
(660.816 2063.79 0)
(-39.5512 267.889 0)
(393.999 2393.63 0)
(-29.0296 122.211 0)
(-301.934 2274.48 0)
(876.249 368.28 0)
(-559.158 2244.72 0)
(-838.987 2569.34 0)
(-872.843 452.862 0)
(-56.2287 210.783 0)
(1399.83 2073.17 0)
(653.751 153.241 0)
(8.18121 1646.94 0)
(-1571.16 960.55 0)
(141.385 532.722 0)
(-28.2552 616.749 0)
(1169.48 477.492 0)
(497.8 2609.81 0)
(108.056 2679.08 0)
(-32.9878 1221.17 0)
(625.605 435.255 0)
(1634.24 1686.34 0)
(19.0981 1239.36 0)
(-211.069 2336.13 0)
(-1357.1 2296.13 0)
(-1666.77 1288.13 0)
(-1534.98 2175.09 0)
(2013.28 789.644 0)
(-1726.5 1618.86 0)
(36.3973 113.47 0)
(246.714 2586.95 0)
(414.119 1863.72 0)
(-42.5898 163.223 0)
(-69.7491 652.306 0)
(43.6427 330.179 0)
(-610.195 1155.78 0)
(-173.235 815.635 0)
(529.497 2502.31 0)
(91.9938 339.71 0)
(1377.05 2382.67 0)
(1085.35 701.998 0)
(1008.4 2501.86 0)
(44.0042 2470.99 0)
(-1627.7 620.516 0)
(0.991154 14.4431 0)
(40.2384 969.121 0)
(-126.39 723.127 0)
(-488.108 427.943 0)
(-1778.92 1818.52 0)
(-16.0595 91.6007 0)
(1572.48 1652.72 0)
(-845.702 743.319 0)
(212.393 2560.4 0)
(84.0241 2450.19 0)
(20.4291 286.527 0)
(-1159.29 339.064 0)
(1530.09 2080.77 0)
(1479.62 535.286 0)
(-419.415 1398.81 0)
(40.841 326.76 0)
(947.754 1905.29 0)
(-76.9013 323.728 0)
(-20.0989 1190.04 0)
(910.364 2606.64 0)
(756.962 2564.03 0)
(1273.09 2397.41 0)
(48.7069 443.606 0)
(-1267.59 2319.39 0)
(-746.737 605.034 0)
(-116.877 2778.7 0)
(-351.75 2558.91 0)
(46.6207 165.084 0)
(1004.73 365.917 0)
(704.238 2654.54 0)
(-1117.83 2406.76 0)
(-1526.21 1908.95 0)
(-177.472 2830.31 0)
(-79.6234 672.637 0)
(597.393 2276.2 0)
(-869.644 2566.93 0)
(-27.0067 1448.59 0)
(913.205 2618.43 0)
(-35.035 104.196 0)
(21.6453 2821.48 0)
(437.994 2725.39 0)
(23.4937 539.383 0)
(676.013 2448.07 0)
(54.7852 428.237 0)
(32.8254 2495.29 0)
(1089.79 483.075 0)
(452.001 2609.53 0)
(-1653.12 2045.6 0)
(-851.925 630.09 0)
(378.638 2527.37 0)
(60.711 271.581 0)
(-748.109 261.99 0)
(-169.944 2747.67 0)
(-554.331 2639.32 0)
(952.932 2595.11 0)
(295.575 2736.69 0)
(138.429 713.973 0)
(1490.21 1007.8 0)
(618.516 2525.34 0)
(-102.135 393.529 0)
(-30.6476 751.151 0)
(-659.843 2354.22 0)
(-30.0971 129.043 0)
(268.438 2445.36 0)
(-1656.54 2069.36 0)
(79.8733 301.898 0)
(-120.792 2499.56 0)
(33.3913 100.047 0)
(42.076 2855.7 0)
(-81.5535 2433.97 0)
(722.388 1372.96 0)
(645.75 2007.26 0)
(568.937 2385.54 0)
(-7.67906 1178.42 0)
(-878.038 2398.02 0)
(-720.699 872.377 0)
(-661.672 1911.49 0)
(-1768.09 1338.1 0)
(-889.483 2551.15 0)
(-841.486 223.67 0)
(-302.077 149.351 0)
(1505.43 1992.13 0)
(-111.243 2584.77 0)
(1070.38 2408.38 0)
(-165.886 2786.15 0)
(117.377 428.636 0)
(769.676 1807.71 0)
(56.4169 2124.9 0)
(-335.201 2778.2 0)
(-1380.23 2280.5 0)
(201.157 53.6104 0)
(78.6643 715.074 0)
(9.7738 43.0268 0)
(1594.13 1830.18 0)
(110.645 406.43 0)
(974.254 2271.52 0)
(1431.16 1945.49 0)
(-366.171 2739.49 0)
(-37.3574 138.574 0)
(-188.686 757.17 0)
(726.35 2656.15 0)
(-69.5747 836.302 0)
(1374.36 2076.89 0)
(129.275 2235.7 0)
(1319.62 2245.08 0)
(1129.3 2357.17 0)
(352.1 2529.4 0)
(-78.9896 2646.96 0)
(-913.718 1098.26 0)
(37.8178 2534.8 0)
(-582.473 2584.57 0)
(-579.807 2394.05 0)
(-74.9932 329.968 0)
(108.745 357.482 0)
(-289.656 2782.66 0)
(1162.12 2338.62 0)
(1178.11 1638.7 0)
(847.462 2488.92 0)
(746.348 1807.13 0)
(-10.9976 58.497 0)
(-1465.45 1796.01 0)
(276.542 2684.78 0)
(781.309 2588.66 0)
(14.1091 73.4533 0)
(-113.007 411.403 0)
(135.337 706.802 0)
(-442.707 2513.22 0)
(-53.167 1072.51 0)
(304.995 2441.38 0)
(-177.881 74.6935 0)
(566.479 2541.45 0)
(-304.489 1934 0)
(-139.861 530.943 0)
(1077.4 2245.34 0)
(-9.13492 248.444 0)
(-129.146 2743.84 0)
(693.497 1929.25 0)
(-1672.76 1284.3 0)
(910.185 1961.06 0)
(-356.87 1517.32 0)
(-468.821 1015.87 0)
(-56.8079 207.993 0)
(-1604.73 2066.93 0)
(-1945.54 733.975 0)
(-883.646 1417.3 0)
(1067.43 1449.19 0)
(245.771 2400.34 0)
(-522.838 2212.82 0)
(9.63256 2694.25 0)
(-110.66 2769.26 0)
(116.859 420.134 0)
(-525.515 2597.89 0)
(-1351.8 770.56 0)
(-1925.38 1478.85 0)
(380.748 1695.61 0)
(319.666 98.8745 0)
(-922.931 918.137 0)
(-2060.67 1027.28 0)
(27.337 707.416 0)
(55.9726 187.184 0)
(-1534.6 2198.2 0)
(856.348 2378.83 0)
(362.627 2499.34 0)
(457.137 2552.75 0)
(1193.5 1828.87 0)
(1562.79 1293.53 0)
(187.427 2578.58 0)
(-492.115 2574.97 0)
(-660.625 2541 0)
(635.327 560.498 0)
(517.746 2720.64 0)
(-79.2436 2437.63 0)
(-1303.33 1206.32 0)
(1251.09 555.157 0)
(-17.1304 158.85 0)
(1126.5 2437.27 0)
(105.145 2538.24 0)
(-92.9655 499.755 0)
(1145.57 2173.02 0)
(37.5603 2502.06 0)
(681.861 1760.78 0)
(172.279 747.863 0)
(-135.395 2301.04 0)
(329.403 2650.69 0)
(331.342 2670.06 0)
(288.118 2431.38 0)
(-156.543 2590.89 0)
(1198.84 1726.86 0)
(165.079 1482 0)
(-735.321 171.778 0)
(550.513 2380.93 0)
(52.2962 192.677 0)
(462.688 2603.08 0)
(767.738 2136.97 0)
(-1120.27 2386.31 0)
(752.666 2610.23 0)
(0.26759 26.7598 0)
(21.1602 2587.33 0)
(1034.48 2405.94 0)
(22.2555 2587 0)
(-6.9484 75.93 0)
(-124.632 698.294 0)
(-1241.76 394.556 0)
(-1239.19 409.348 0)
(46.2235 192.61 0)
(0.0709543 0.146453 0)
(-923.504 2511.51 0)
(1716.94 1489.8 0)
(130.672 2398.44 0)
(754.137 197.324 0)
(-1310.92 2240.65 0)
(4.43025 975.2 0)
(1131.28 303.508 0)
(1508.57 2288.52 0)
(55.3409 417.575 0)
(-52.6842 2172.91 0)
(-1813.67 1094.24 0)
(-18.4642 161.208 0)
(-37.244 121.144 0)
(1266.41 2140.21 0)
(-419.924 1762.91 0)
(-874.018 1798.08 0)
(-1108.95 2427.9 0)
(-185.801 2525.44 0)
(-29.0732 2174.23 0)
(-1274.71 2322.02 0)
(927.027 2643.52 0)
(-431.401 1533.7 0)
(-148.177 566.483 0)
(206.898 2427.69 0)
(-70.682 488.831 0)
(-1496.54 2211.32 0)
(1562.51 476.112 0)
(108.863 978.479 0)
(1063.42 2396.3 0)
(-2022.44 1038.33 0)
(-1583.62 1903.69 0)
(134.25 819.726 0)
(-168.646 631.068 0)
(-238.405 2585.36 0)
(91.2505 1925.36 0)
(-389.024 2256.02 0)
(-1461.11 463.534 0)
(-1733.86 1621.32 0)
(-702.308 219.147 0)
(-1808.69 663.588 0)
(1911.59 1003.39 0)
(-47.9328 2594.16 0)
(-122.78 687.493 0)
(-415.629 2324.25 0)
(-410.619 2576.75 0)
(-800.423 2374.89 0)
(79.2541 744.962 0)
(-70.9987 661.101 0)
(1085.19 2488.45 0)
(1167.43 2369.28 0)
(-78.7426 620.442 0)
(1057.79 1403.09 0)
(-1254.61 2402.54 0)
(-121.025 446.796 0)
(614.878 2551.12 0)
(-165.418 864.636 0)
(502.483 2487.67 0)
(-194.21 1666.28 0)
(138.389 2388.74 0)
(526.323 2586.65 0)
(-827.57 2635.46 0)
(1048.21 2452.95 0)
(0.332327 0.544293 0)
(50.1343 2088.5 0)
(-37.6007 390.132 0)
(-500.342 2653.8 0)
(-400.026 2245.87 0)
(-37.4786 383.557 0)
(-320.173 2667.73 0)
(1008.25 2547.66 0)
(563.784 2378.28 0)
(-1721.48 563.662 0)
(-111.073 407.808 0)
(-886.073 218.693 0)
(48.4051 412.543 0)
(1425.87 2363.26 0)
(-370.912 2662.08 0)
(106.76 2541.35 0)
(497.215 2619.41 0)
(-729.758 2186.27 0)
(858.465 2611.23 0)
(-112.882 2685.37 0)
(61.7745 1467.97 0)
(614.986 2512.74 0)
(-1279.98 1097.91 0)
(-446.557 2643.3 0)
(-1672.45 563.108 0)
(430.167 2538.77 0)
(-27.5077 1136.2 0)
(47.7545 455.058 0)
(-1227.68 2354.63 0)
(18.6288 282.679 0)
(278.626 1409.91 0)
(-14.1351 88.5038 0)
(-1568.24 1919.73 0)
(766.97 671.257 0)
(-377.008 2693.9 0)
(-69.4722 822.127 0)
(506.846 2444.92 0)
(-402.217 314.861 0)
(519.093 2721.48 0)
(-1101.8 2516.92 0)
(-602.152 2615.35 0)
(-1653.27 1118.35 0)
(116.019 2530.62 0)
(-593.692 2646.93 0)
(1924.69 1490.27 0)
(302.836 1601.9 0)
(41.9515 150.958 0)
(-385.735 880.482 0)
(-1750.7 1570.19 0)
(-135.533 2564.82 0)
(115.832 1020.81 0)
(107.422 2089.38 0)
(-673.618 172.162 0)
(-0.649882 6.87584 0)
(-803.643 528.82 0)
(1536.91 2024.81 0)
(-892.6 2510.71 0)
(1506.95 468.114 0)
(70.15 2372.3 0)
(364.276 2661.75 0)
(784.915 1944.53 0)
(780.475 2547.1 0)
(593.578 2201.03 0)
(-22.7708 377.238 0)
(-368.094 2126.07 0)
(168.365 856.266 0)
(95.2341 1933.32 0)
(1699.8 1626.84 0)
(-198.984 2581.23 0)
(200.177 2726.48 0)
(548.13 120.978 0)
(-1262.9 2313.36 0)
(-201.419 2555.76 0)
(62.8252 218.344 0)
(-1384.47 786.226 0)
(-318.071 144.545 0)
(-504.51 477.314 0)
(-147.176 2545.52 0)
(-62.889 324.052 0)
(326.423 1677.35 0)
(40.4966 381.235 0)
(338.384 2520.41 0)
(116.635 2605.36 0)
(-218.934 452.986 0)
(35.2627 1103.07 0)
(-1506.58 2214.83 0)
(-14.3632 496.144 0)
(603.167 724.903 0)
(-102.221 2638.48 0)
(645.084 2573.94 0)
(19.4285 2677.31 0)
(211.663 150.583 0)
(-402.387 2298.34 0)
(1348.67 2331.25 0)
(707.689 1011.8 0)
(-1933.02 721.483 0)
(429.231 2535.86 0)
(-955.232 286.414 0)
(-411.955 2269.98 0)
(68.4887 757.289 0)
(-151.038 2757.8 0)
(-1038.85 2455.16 0)
(-56.0503 2539.63 0)
(-805.888 2645.49 0)
(578.903 2602.58 0)
(1259.33 580.261 0)
(238.18 2677.18 0)
(-784.059 2542.59 0)
(210.306 2525.66 0)
(0.137484 0.272814 0)
(-2039.95 975.751 0)
(-329.289 1997.18 0)
(-1800.58 1692.63 0)
(76.0262 754.309 0)
(43.4379 453.66 0)
(-63.8598 340.14 0)
(362.16 2509.65 0)
(1869.48 630.321 0)
(140.307 2438.34 0)
(-21.2507 603.704 0)
(582.865 2728.51 0)
(-41.1577 2599.47 0)
(-688.386 2534.63 0)
(1750.47 1881.4 0)
(-1638.42 2019.36 0)
(-1348.25 2331.54 0)
(1497.93 1982.51 0)
(1477.19 2317.12 0)
(940.453 1830.92 0)
(-1264.56 2302.66 0)
(87.8973 342.495 0)
(-1268.6 1403.35 0)
(1263.76 2098.17 0)
(467.761 2633.19 0)
(-1100.02 2517.24 0)
(-196.287 2184.77 0)
(1372.85 2292.27 0)
(-43.6653 160.547 0)
(356.923 2512.92 0)
(1265.51 1598.85 0)
(-1103.13 2508.3 0)
(-43.6946 258.905 0)
(50.2352 236.116 0)
(-1054.48 2454.52 0)
(1585.49 1995.44 0)
(-25.0922 2621.23 0)
(1413.36 1483.74 0)
(1132.96 2371.48 0)
(-1950.05 1446.38 0)
(-1676.51 1729.23 0)
(-11.2003 491.433 0)
(2028.08 824.016 0)
(-42.4467 204.946 0)
(1048.3 300.661 0)
(-1277.3 2344.07 0)
(-493.687 2641.15 0)
(1868.27 1590.23 0)
(1332.59 2250.68 0)
(6.45527 6.73855 0)
(-72.6847 253.04 0)
(-432.727 809.839 0)
(-1607.97 1345.12 0)
(-1785.08 1484.28 0)
(-735.314 264.846 0)
(162.034 712.466 0)
(-34.4289 2663.64 0)
(240.995 2774.95 0)
(1713.21 1993.66 0)
(1198.17 691.131 0)
(2.54919 4.23845 0)
(-319.517 2522.16 0)
(-28.8601 144.685 0)
(849.626 2569.58 0)
(1286.11 2432.73 0)
(1295.46 2408.21 0)
(-5.90205 2473.46 0)
(1095.73 2460.57 0)
(872.101 2174.84 0)
(1450.47 413.222 0)
(62.6468 751.226 0)
(-68.1445 259.255 0)
(-578.929 162.145 0)
(-1549.37 2060.21 0)
(-100.73 2510.72 0)
(83.822 2241.28 0)
(-53.019 2690.75 0)
(-778.644 1848.91 0)
(1988.82 992.413 0)
(-1480.19 1299.83 0)
(1741.63 1880.78 0)
(884.626 1989.65 0)
(-20.0958 348.334 0)
(577.834 2026.83 0)
(176.172 2728.83 0)
(-1205.4 2373.78 0)
(-397.929 1440.1 0)
(-1665.95 960.308 0)
(1677.11 1250.63 0)
(779.489 2628.84 0)
(1031.44 2247.35 0)
(-230.988 2095.06 0)
(628.128 2549.08 0)
(857.432 1677.11 0)
(816.577 2332.14 0)
(1323.38 2015.84 0)
(79.2731 656.742 0)
(-154.696 567.219 0)
(-176.362 875.033 0)
(163.304 620.499 0)
(1476.44 2235.78 0)
(36.7195 379.439 0)
(19.4541 1066.67 0)
(842.216 902.187 0)
(9.40679 2452.76 0)
(1093.48 2531.33 0)
(-1113.57 509.166 0)
(1624.48 1827.4 0)
(-84.2727 301.607 0)
(871.558 2560.19 0)
(1038.86 2476.05 0)
(-693.146 2688.97 0)
(1842.02 1596.12 0)
(463.105 2621.77 0)
(50.2637 417.902 0)
(-793.359 2484.96 0)
(1348.74 1746.74 0)
(-41.2665 207.695 0)
(276.484 1853.12 0)
(45.2719 984.937 0)
(672.288 1359.22 0)
(1665.13 1944.37 0)
(-219.386 1664.45 0)
(-1075.58 2254.9 0)
(-510.122 2626.21 0)
(-307.735 2647.08 0)
(-847.767 2523.91 0)
(1298.13 394.234 0)
(-886.588 2456.55 0)
(531.103 102.902 0)
(-703.192 331.485 0)
(-683.036 2590.75 0)
(-75.2985 645.497 0)
(-1284.23 2389.91 0)
(-38.6063 2088.83 0)
(167.102 2625.08 0)
(1528.99 1391.67 0)
(-267.769 1315.58 0)
(896.333 1938.97 0)