0 	0 	0 	1.379e+006 	300 	1.11448
-3.34597e-021 	8.49561e-005 	1.99971e-019 	1.47678e+006 	300 	1.19351
1.85288e-021 	0.000165142 	1.99971e-019 	1.52139e+006 	300 	1.22956
1.79995e-021 	0.000165952 	1.99971e-019 	1.52181e+006 	300 	1.2299
1.58819e-021 	0.000167208 	1.99971e-019 	1.52192e+006 	300 	1.22999
3.38813e-021 	0.000246429 	1.99971e-019 	1.52939e+006 	299.999 	1.23603
-3.38813e-021 	0.000286935 	1.99971e-019 	1.52806e+006 	299.999 	1.23495
-4.95617e-021 	0.000324576 	1.99971e-019 	1.52516e+006 	299.999 	1.23262
-8.09903e-021 	0.000386443 	1.99971e-019 	1.51422e+006 	299.999 	1.22377
-8.94607e-021 	0.00039981 	1.99971e-019 	1.51208e+006 	299.999 	1.22204
-7.6233e-021 	0.000409413 	1.99971e-019 	1.50907e+006 	300 	1.2196
-3.38813e-021 	0.000474922 	1.99971e-019 	1.48383e+006 	300.002 	1.1992
-1.29248e-020 	0.000525915 	1.99971e-019 	1.44484e+006 	300.008 	1.16766
-1.35525e-020 	0.000545077 	1.99971e-019 	1.42879e+006 	300.011 	1.15468
-1.39213e-020 	0.000577816 	1.99971e-019 	1.39518e+006 	300.023 	1.12748
-1.52466e-020 	0.000613877 	1.99971e-019 	1.3566e+006 	300.035 	1.09625
-1.69407e-020 	0.000636855 	1.99971e-019 	1.33374e+006 	300.053 	1.07771
-2.03288e-020 	0.000680922 	1.99971e-019 	1.29178e+006 	300.09 	1.04368
-2.11758e-020 	0.000744184 	1.99971e-019 	1.23767e+006 	300.2 	0.999598
-2.15993e-020 	0.000747971 	1.99971e-019 	1.23446e+006 	300.207 	0.996986
-2.07523e-020 	0.000754798 	1.99971e-019 	1.22961e+006 	300.23 	0.992996
-2.37169e-020 	0.000812401 	1.99971e-019 	1.18703e+006 	300.415 	0.958018
-2.44515e-020 	0.000841573 	1.99971e-019 	1.17302e+006 	300.57 	0.946222
-2.82213e-020 	0.000874088 	1.99971e-019 	1.15785e+006 	300.753 	0.933415
-2.89624e-020 	0.0009338 	1.99971e-019 	1.14475e+006 	301.247 	0.921338
-2.89326e-020 	0.000934775 	1.99971e-019 	1.14456e+006 	301.255 	0.92116
-2.8905e-020 	0.000936905 	1.99971e-019 	1.14442e+006 	301.281 	0.920972
-2.82237e-020 	0.000994329 	1.99971e-019 	1.14052e+006 	301.947 	0.915807
-2.99177e-020 	0.00102109 	1.99971e-019 	1.14043e+006 	302.355 	0.914499
-3.28103e-020 	0.00105169 	1.99971e-019 	1.14052e+006 	302.844 	0.91309
-3.59866e-020 	0.00110517 	1.99971e-019 	1.14145e+006 	303.908 	0.910634
-3.58085e-020 	0.00110764 	1.99971e-019 	1.1415e+006 	303.96 	0.910519
-3.62107e-020 	0.00111255 	1.99971e-019 	1.14157e+006 	304.084 	0.910208
-3.53024e-020 	0.00116181 	1.99971e-019 	1.14248e+006 	305.303 	0.907298
-3.53024e-020 	0.00118635 	1.99971e-019 	1.14282e+006 	306.025 	0.905428
-4.04544e-020 	0.00121509 	1.99971e-019 	1.14331e+006 	306.894 	0.90325
-4.55366e-020 	0.00126354 	1.99971e-019 	1.14379e+006 	308.615 	0.898594
-4.5688e-020 	0.00126595 	1.99971e-019 	1.14381e+006 	308.704 	0.898352
-4.61633e-020 	0.00127065 	1.99971e-019 	1.14381e+006 	308.899 	0.897783
-4.40484e-020 	0.00131575 	1.99971e-019 	1.14382e+006 	310.741 	0.892469
-4.57425e-020 	0.00133853 	1.99971e-019 	1.14334e+006 	311.794 	0.889098
-4.60365e-020 	0.00136471 	1.99971e-019 	1.14281e+006 	313.015 	0.885209
-4.85776e-020 	0.00141004 	1.99971e-019 	1.14192e+006 	315.418 	0.877776
-4.87829e-020 	0.00141176 	1.99971e-019 	1.1419e+006 	315.515 	0.877494
-4.87044e-020 	0.00141533 	1.99971e-019 	1.14207e+006 	315.718 	0.877064
-4.78399e-020 	0.00145799 	1.99971e-019 	1.14415e+006 	318.137 	0.871972
-4.78399e-020 	0.00147866 	1.99971e-019 	1.14415e+006 	319.42 	0.868488
-4.81103e-020 	0.00150232 	1.99971e-019 	1.1441e+006 	320.902 	0.864436
-5.10749e-020 	0.00154483 	1.99971e-019 	1.14246e+006 	323.862 	0.8553
-5.12294e-020 	0.00154543 	1.99971e-019 	1.14243e+006 	323.905 	0.855165
-5.12455e-020 	0.00154657 	1.99971e-019 	1.1424e+006 	323.992 	0.854917
-5.27756e-020 	0.00158764 	1.99971e-019 	1.14149e+006 	327.083 	0.846167
-5.36226e-020 	0.00160878 	1.99971e-019 	1.14115e+006 	328.759 	0.841614
-5.51794e-020 	0.00162912 	1.99971e-019 	1.14084e+006 	330.402 	0.837192
-5.80218e-020 	0.00166732 	1.99971e-019 	1.14017e+006 	333.642 	0.828579
-5.80218e-020 	0.00166886 	1.99971e-019 	1.14015e+006 	333.771 	0.828237
-5.79159e-020 	0.00166968 	1.99971e-019 	1.14013e+006 	333.842 	0.828048
-5.61955e-020 	0.00170776 	1.99971e-019 	1.13936e+006 	337.233 	0.819171
-5.36544e-020 	0.00172866 	1.99971e-019 	1.13894e+006 	339.154 	0.81424
-5.20092e-020 	0.00174596 	1.99971e-019 	1.13861e+006 	340.77 	0.810134
-5.20925e-020 	0.0017779 	1.99971e-019 	1.13787e+006 	343.85 	0.802368
-5.2516e-020 	0.00178256 	1.99971e-019 	1.13777e+006 	344.295 	0.801248
-5.2516e-020 	0.00178505 	1.99971e-019 	1.13771e+006 	344.538 	0.800641
-5.26435e-020 	0.00181855 	1.99971e-019 	1.13658e+006 	347.863 	0.792199
-5.43376e-020 	0.00184057 	1.99971e-019 	1.13611e+006 	350.067 	0.786891
-5.24645e-020 	0.00185358 	1.99971e-019 	1.13602e+006 	351.38 	0.783884
-5.33631e-020 	0.0018797 	1.99971e-019 	1.13544e+006 	354.058 	0.777572
-5.44743e-020 	0.00188773 	1.99971e-019 	1.13528e+006 	354.88 	0.77564
-5.53214e-020 	0.00189168 	1.99971e-019 	1.13511e+006 	355.288 	0.774642
-5.4663e-020 	0.00192066 	1.99971e-019 	1.13375e+006 	358.335 	0.76713
-5.551e-020 	0.00194082 	1.99971e-019 	1.13278e+006 	360.456 	0.761971
-5.56148e-020 	0.00195274 	1.99971e-019 	1.13238e+006 	361.728 	0.759017
-5.2516e-020 	0.00197421 	1.99971e-019 	1.13275e+006 	363.988 	0.754563
-5.25717e-020 	0.00198403 	1.99971e-019 	1.1329e+006 	365.023 	0.752506
-5.17246e-020 	0.00198941 	1.99971e-019 	1.1328e+006 	365.586 	0.751283
-5.1242e-020 	0.00201476 	1.99971e-019 	1.13191e+006 	368.281 	0.7452
-5.2089e-020 	0.00203493 	1.99971e-019 	1.13043e+006 	370.419 	0.739937
-5.16805e-020 	0.00204453 	1.99971e-019 	1.12984e+006 	371.447 	0.737492
-5.20925e-020 	0.00206227 	1.99971e-019 	1.129e+006 	373.336 	0.733235
-5.1669e-020 	0.00207317 	1.99971e-019 	1.12851e+006 	374.5 	0.730618
-5.1669e-020 	0.00207923 	1.99971e-019 	1.12852e+006 	375.124 	0.729409
-5.27189e-020 	0.00210118 	1.99971e-019 	1.12802e+006 	377.42 	0.724654
-5.14483e-020 	0.00212297 	1.99971e-019 	1.1274e+006 	378.776 	0.721662
-5.17263e-020 	0.00212849 	1.99971e-019 	1.12697e+006 	380.194 	0.718691
-5.1669e-020 	0.00213857 	1.99971e-019 	1.1265e+006 	381.07 	0.716753
-5.11911e-020 	0.00215502 	1.99971e-019 	1.12549e+006 	382.752 	0.712955
-5.0344e-020 	0.00216369 	1.99971e-019 	1.12439e+006 	384.337 	0.709322
-5.16856e-020 	0.00218091 	1.99971e-019 	1.12392e+006 	385.366 	0.707125
-5.0415e-020 	0.00220231 	1.99971e-019 	1.12348e+006 	386.826 	0.704186
-5.01013e-020 	0.00220628 	1.99971e-019 	1.12241e+006 	388.776 	0.69998
-4.99749e-020 	0.0022138 	1.99971e-019 	1.12212e+006 	388.782 	0.6998
-5.02753e-020 	0.00223081 	1.99971e-019 	1.12167e+006 	390.195 	0.696977
-4.94282e-020 	0.00224032 	1.99971e-019 	1.1211e+006 	391.055 	0.695089
-5.17846e-020 	0.00225455 	1.99971e-019 	1.12016e+006 	392.75 	0.691509
-5.24199e-020 	0.00227622 	1.99971e-019 	1.11926e+006 	393.915 	0.688913
-5.20641e-020 	0.00227809 	1.99971e-019 	1.11886e+006 	394.75 	0.687208
-5.18808e-020 	0.00228155 	1.99971e-019 	1.11788e+006 	395.876 	0.684655
-5.2516e-020 	0.00230055 	1.99971e-019 	1.11741e+006 	396.247 	0.683724
-5.2516e-020 	0.00231126 	1.99971e-019 	1.11644e+006 	397.325 	0.681277
-5.252e-020 	0.00232249 	1.99971e-019 	1.11591e+006 	398.553 	0.678856
-5.21984e-020 	0.00234187 	1.99971e-019 	1.11543e+006 	398.362 	0.678893
-5.19136e-020 	0.00234404 	1.99971e-019 	1.11444e+006 	399.365 	0.676584
-5.21254e-020 	0.00234526 	1.99971e-019 	1.11337e+006 	400.237 	0.67446
-5.2235e-020 	0.00236485 	1.99971e-019 	1.11278e+006 	400.914 	0.672967
-5.35056e-020 	0.00237739 	1.99971e-019 	1.11211e+006 	401.981 	0.670774
-5.40496e-020 	0.00238521 	1.99971e-019 	1.11084e+006 	403.273 	0.66786
-5.46336e-020 	0.00240097 	1.99971e-019 	1.11048e+006 	402.898 	0.668267
-5.43193e-020 	0.00240496 	1.99971e-019 	1.10931e+006 	403.641 	0.666329
-5.43193e-020 	0.00240707 	1.99971e-019 	1.10813e+006 	404.293 	0.664549
-5.2116e-020 	0.0024257 	1.99971e-019 	1.10751e+006 	404.815 	0.66332
-5.33866e-020 	0.00243488 	1.99971e-019 	1.10619e+006 	405.79 	0.660935
-5.31997e-020 	0.00244358 	1.99971e-019 	1.10543e+006 	406.651 	0.659084
-5.20925e-020 	0.00245791 	1.99971e-019 	1.10429e+006 	406.776 	0.658202
-5.17955e-020 	0.00246134 	1.99971e-019 	1.10375e+006 	406.855 	0.657753
-5.15837e-020 	0.0024634 	1.99971e-019 	1.10246e+006 	407.32 	0.656234
-5.17495e-020 	0.00247897 	1.99971e-019 	1.10179e+006 	407.736 	0.655165
-5.17495e-020 	0.00249024 	1.99971e-019 	1.10098e+006 	408.491 	0.653474
-5.21023e-020 	0.00249621 	1.99971e-019 	1.09956e+006 	409.262 	0.651403
-5.10337e-020 	0.00250679 	1.99971e-019 	1.099e+006 	408.876 	0.651687
-5.11683e-020 	0.00251298 	1.99971e-019 	1.09763e+006 	409.236 	0.650301
-5.07448e-020 	0.00251644 	1.99971e-019 	1.09619e+006 	409.529 	0.64898
-5.15314e-020 	0.00252957 	1.99971e-019 	1.09537e+006 	409.857 	0.647975
-5.11079e-020 	0.00254166 	1.99971e-019 	1.09437e+006 	410.506 	0.646361
-5.22259e-020 	0.00254543 	1.99971e-019 	1.0928e+006 	411.055 	0.644575
-5.1669e-020 	0.00255292 	1.99971e-019 	1.09227e+006 	410.635 	0.644922
-5.14908e-020 	0.00256094 	1.99971e-019 	1.09084e+006 	410.831 	0.643767
-5.10673e-020 	0.00256523 	1.99971e-019 	1.08999e+006 	411.064 	0.642904
-5.09501e-020 	0.00257596 	1.99971e-019 	1.08833e+006 	411.499 	0.641243
-5.0822e-020 	0.00258717 	1.99971e-019 	1.08666e+006 	411.612 	0.640082
-5.07306e-020 	0.00259056 	1.99971e-019 	1.08579e+006 	411.814 	0.639255
-5.01867e-020 	0.00259682 	1.99971e-019 	1.08403e+006 	411.899 	0.638092
-5.05917e-020 	0.00260497 	1.99971e-019 	1.08327e+006 	411.799 	0.637796
-5.10152e-020 	0.00260958 	1.99971e-019 	1.08151e+006 	411.855 	0.636671
-5.16374e-020 	0.00261874 	1.99971e-019 	1.08057e+006 	412.03 	0.635853
-5.14257e-020 	0.00263091 	1.99971e-019 	1.07948e+006 	412.475 	0.634523
-5.16184e-020 	0.00263224 	1.99971e-019 	1.07753e+006 	412.787 	0.6329
-5.15631e-020 	0.00263447 	1.99971e-019 	1.07679e+006 	412.336 	0.633156
-5.15941e-020 	0.00264536 	1.99971e-019 	1.0749e+006 	412.332 	0.632052
-5.11706e-020 	0.00265172 	1.99971e-019 	1.07385e+006 	412.452 	0.631247
-5.18329e-020 	0.00265813 	1.99971e-019 	1.07172e+006 	412.685 	0.62964
-5.16161e-020 	0.00266994 	1.99971e-019 	1.07097e+006 	412.245 	0.629871
-5.16161e-020 	0.00267076 	1.99971e-019 	1.06897e+006 	412.195 	0.628774
-5.16161e-020 	0.00267123 	1.99971e-019 	1.06687e+006 	412.13 	0.627637
-5.1669e-020 	0.00268287 	1.99971e-019 	1.06561e+006 	412.471 	0.626377
-5.20925e-020 	0.00269036 	1.99971e-019 	1.06344e+006 	412.383 	0.625236
-5.22175e-020 	0.00269466 	1.99971e-019 	1.06207e+006 	412.704 	0.623941
-5.2516e-020 	0.0027024 	1.99971e-019 	1.06118e+006 	412.279 	0.624063
-5.26373e-020 	0.00270627 	1.99971e-019 	1.05891e+006 	412.178 	0.622881
-5.26373e-020 	0.00270844 	1.99971e-019 	1.05657e+006 	412.06 	0.621681
-5.13663e-020 	0.00271745 	1.99971e-019 	1.05531e+006 	412.112 	0.620864
-5.1578e-020 	0.00272578 	1.99971e-019 	1.05382e+006 	412.386 	0.619571
-5.15532e-020 	0.00272834 	1.99971e-019 	1.05135e+006 	412.463 	0.618007
-5.14573e-020 	0.00273244 	1.99971e-019 	1.04913e+006 	412.089 	0.617263
-5.12455e-020 	0.00273891 	1.99971e-019 	1.04805e+006 	411.906 	0.616897
-5.18808e-020 	0.00274291 	1.99971e-019 	1.04556e+006 	411.736 	0.615685
-5.23416e-020 	0.00274927 	1.99971e-019 	1.04408e+006 	411.953 	0.61449
-5.24739e-020 	0.00275926 	1.99971e-019 	1.04263e+006 	411.957 	0.613633
-5.29206e-020 	0.00276931 	1.99971e-019 	1.03561e+006 	411.353 	0.610396
-5.29396e-020 	0.00277494 	1.99971e-019 	1.03404e+006 	411.334 	0.6095
-5.2516e-020 	0.00277899 	1.99971e-019 	1.03118e+006 	411.09 	0.608177
-5.26219e-020 	0.00278759 	1.99971e-019 	1.02983e+006 	410.862 	0.607715
-5.25672e-020 	0.00278837 	1.99971e-019 	1.02677e+006 	410.611 	0.606281
-5.25143e-020 	0.00278873 	1.99971e-019 	1.02383e+006 	410.361 	0.604913
-5.2268e-020 	0.00279736 	1.99971e-019 	1.02232e+006 	410.317 	0.604084
-5.24797e-020 	0.00280212 	1.99971e-019 	1.0204e+006 	410.441 	0.602764
-5.32308e-020 	0.00280615 	1.99971e-019 	1.01702e+006 	410.335 	0.600924
-5.35748e-020 	0.00281288 	1.99971e-019 	1.0158e+006 	409.942 	0.600779
-5.3305e-020 	0.00281481 	1.99971e-019 	1.0127e+006 	409.648 	0.599379
-5.35168e-020 	0.00281594 	1.99971e-019 	1.01085e+006 	409.574 	0.598392
-5.29183e-020 	0.00282325 	1.99971e-019 	1.00712e+006 	409.414 	0.596417
-5.27065e-020 	0.00282909 	1.99971e-019 	1.00344e+006 	409.105 	0.594684
-5.27788e-020 	0.00283153 	1.99971e-019 	1.00148e+006 	409.023 	0.593641
-5.28337e-020 	0.00283574 	1.99971e-019 	997821 	408.694 	0.591948
-5.27278e-020 	0.00283947 	1.99971e-019 	996184 	408.458 	0.591319
-5.29396e-020 	0.00284177 	1.99971e-019 	992190 	408.12 	0.589434
-5.32078e-020 	0.0028473 	1.99971e-019 	989727 	408.173 	0.587896
-5.35784e-020 	0.00285426 	1.99971e-019 	987540 	408.068 	0.586747
-5.36265e-020 	0.00285497 	1.99971e-019 	983494 	407.703 	0.584867
-5.36807e-020 	0.00285619 	1.99971e-019 	981588 	407.439 	0.584111
-5.32793e-020 	0.00286248 	1.99971e-019 	977728 	407.064 	0.582351
-5.31513e-020 	0.0028657 	1.99971e-019 	973673 	406.685 	0.580475
-5.2996e-020 	0.00286952 	1.99971e-019 	971210 	406.682 	0.579013
-5.30454e-020 	0.00287533 	1.99971e-019 	966819 	406.202 	0.577074
-5.32226e-020 	0.00287656 	1.99971e-019 	964690 	405.951 	0.576161
-5.31167e-020 	0.0028774 	1.99971e-019 	960381 	405.509 	0.574211
-5.26813e-020 	0.00288383 	1.99971e-019 	957990 	405.319 	0.573051
-5.28931e-020 	0.00288722 	1.99971e-019 	954999 	405.239 	0.571373
-5.33804e-020 	0.00289058 	1.99971e-019 	949830 	404.905 	0.568751
-5.3416e-020 	0.00289598 	1.99971e-019 	947994 	404.5 	0.568218
-5.33593e-020 	0.00289724 	1.99971e-019 	942834 	404.031 	0.565782
-5.33593e-020 	0.00289802 	1.99971e-019 	939971 	403.839 	0.564331
-5.31311e-020 	0.00290378 	1.99971e-019 	934720 	403.344 	0.561869
-5.37664e-020 	0.00290827 	1.99971e-019 	928863 	402.929 	0.558922
-5.35302e-020 	0.00291019 	1.99971e-019 	925948 	402.719 	0.55746
-5.37866e-020 	0.00291346 	1.99971e-019 	920341 	402.173 	0.554834
-5.35748e-020 	0.00291639 	1.99971e-019 	917824 	401.857 	0.553753
-5.39984e-020 	0.00291816 	1.99971e-019 	912004 	401.289 	0.551019
-5.39984e-020 	0.00292249 	1.99971e-019 	908374 	401.157 	0.549008
-5.36807e-020 	0.0029281 	1.99971e-019 	902149 	400.543 	0.54608
-5.37337e-020 	0.00292857 	1.99971e-019 	898450 	400.397 	0.54404
-5.37982e-020 	0.00292934 	1.99971e-019 	892183 	399.638 	0.541268
-5.37866e-020 	0.00293455 	1.99971e-019 	889762 	399.182 	0.540419
-5.35748e-020 	0.00293792 	1.99971e-019 	882359 	398.59 	0.536716
-5.31513e-020 	0.00294038 	1.99971e-019 	878207 	398.384 	0.53447
-5.31513e-020 	0.00294413 	1.99971e-019 	875449 	397.878 	0.533465
-5.29396e-020 	0.00294614 	1.99971e-019 	869288 	397.097 	0.530756
-5.30454e-020 	0.00294737 	1.99971e-019 	861352 	396.405 	0.526826
-5.29396e-020 	0.00295171 	1.99971e-019 	856750 	396.114 	0.524398
-5.31513e-020 	0.00295648 	1.99971e-019 	852580 	395.739 	0.522336
-5.32572e-020 	0.00295719 	1.99971e-019 	844900 	394.924 	0.518703
-5.32091e-020 	0.00295827 	1.99971e-019 	836819 	394.061 	0.514863
-5.3368e-020 	0.00296264 	1.99971e-019 	833218 	393.603 	0.513247
-5.3368e-020 	0.0029654 	1.99971e-019 	824727 	392.679 	0.509208
-5.37014e-020 	0.002968 	1.99971e-019 	819335 	392.297 	0.506375
-5.39984e-020 	0.00297217 	1.99971e-019 	810960 	391.234 	0.502554
-5.39734e-020 	0.00297356 	1.99971e-019 	806651 	390.691 	0.500585
-5.40793e-020 	0.00297455 	1.99971e-019 	801228 	390.154 	0.497896
-5.41659e-020 	0.00297924 	1.99971e-019 	791101 	389.034 	0.493024
-5.39012e-020 	0.0029846 	1.99971e-019 	784704 	388.539 	0.489651
-5.39454e-020 	0.00298513 	1.99971e-019 	773785 	387.332 	0.48435
-5.39454e-020 	0.00298558 	1.99971e-019 	768117 	386.619 	0.481678
-5.42101e-020 	0.00299107 	1.99971e-019 	756556 	385.154 	0.476241
-5.45562e-020 	0.00299636 	1.99971e-019 	744192 	383.723 	0.470194
-5.45297e-020 	0.00299676 	1.99971e-019 	738367 	382.956 	0.467459
-5.42483e-020 	0.00300259 	1.99971e-019 	717750 	380.723 	0.457068
-5.40365e-020 	0.003007 	1.99971e-019 	702614 	378.852 	0.449615
-5.42552e-020 	0.00300912 	1.99971e-019 	694953 	378.009 	0.445722
-5.36592e-020 	0.00301185 	1.99971e-019 	675956 	375.741 	0.436118
-5.34475e-020 	0.00301655 	1.99971e-019 	667427 	374.6 	0.431951
-5.32357e-020 	0.00302036 	1.99971e-019 	648702 	372.192 	0.422518
-5.30001e-020 	0.00302411 	1.99971e-019 	637375 	370.829 	0.416694
-5.29762e-020 	0.00302764 	1.99971e-019 	622070 	368.702 	0.409011
-5.25527e-020 	0.0030309 	1.99971e-019 	612459 	367.309 	0.404242
-5.2288e-020 	0.00303714 	1.99971e-019 	590920 	364.34 	0.393135
-5.23151e-020 	0.00303837 	1.99971e-019 	586843 	363.907 	0.390912
-5.23572e-020 	0.00303881 	1.99971e-019 	574871 	362.215 	0.384734
-5.24631e-020 	0.00304009 	1.99971e-019 	565820 	360.693 	0.380194
-5.2516e-020 	0.00304859 	1.99971e-019 	540388 	356.677 	0.367265
-5.30082e-020 	0.00305358 	1.99971e-019 	515019 	352.83 	0.353768
-5.2911e-020 	0.00305788 	1.99971e-019 	499553 	350.504 	0.345477
-5.29396e-020 	0.00306216 	1.99971e-019 	476559 	346.591 	0.333193
-5.29396e-020 	0.00306755 	1.99971e-019 	464840 	344.487 	0.327069
-5.27849e-020 	0.00307195 	1.99971e-019 	450569 	342.208 	0.319043
-5.37866e-020 	0.0030783 	1.99971e-019 	423642 	337.576 	0.304164
-5.30454e-020 	0.00308755 	1.99971e-019 	412489 	335.369 	0.297998
-5.30454e-020 	0.00308954 	1.99971e-019 	384755 	330.166 	0.282433
-5.30454e-020 	0.00309082 	1.99971e-019 	374355 	328.142 	0.276399
-5.29396e-020 	0.0031015 	1.99971e-019 	348382 	323.059 	0.261353
-5.29396e-020 	0.0031101 	1.99971e-019 	326511 	318.371 	0.248463
-5.33631e-020 	0.00311354 	1.99971e-019 	313902 	315.806 	0.24089
-5.38577e-020 	0.00311859 	1.99971e-019 	293050 	311.008 	0.228236
-5.54807e-020 	0.00312652 	1.99971e-019 	283764 	308.886 	0.222633
-5.51282e-020 	0.00313245 	1.99971e-019 	272615 	306.192 	0.215685
-5.49951e-020 	0.00314016 	1.99971e-019 	253057 	301.376 	0.203489
-5.5621e-020 	0.00315155 	1.99971e-019 	245154 	299.138 	0.198501
-5.59042e-020 	0.00315462 	1.99971e-019 	226292 	294.131 	0.186431
-5.59042e-020 	0.00315668 	1.99971e-019 	218055 	291.817 	0.180997
-5.50571e-020 	0.00316955 	1.99971e-019 	201488 	287.088 	0.170082
-5.64336e-020 	0.00318075 	1.99971e-019 	194066 	285.081 	0.164932
-5.64336e-020 	0.00318165 	1.99971e-019 	178385 	280.377 	0.154191
-5.68357e-020 	0.00319845 	1.99971e-019 	171546 	278.136 	0.149451
-5.84453e-020 	0.00321793 	1.99971e-019 	143796 	267.737 	0.130149
-5.75982e-020 	0.00322905 	1.99971e-019 	133841 	263.815 	0.122895
-5.67512e-020 	0.00323704 	1.99971e-019 	126350 	260.49 	0.11753
-5.72464e-020 	0.00324926 	1.99971e-019 	119169 	257.599 	0.112041
-5.67077e-020 	0.00325701 	1.99971e-019 	114013 	255.559 	0.108109
-5.65382e-020 	0.00326282 	1.99971e-019 	110378 	253.629 	0.105427
-5.75982e-020 	0.00327708 	1.99971e-019 	102082 	249.605 	0.0991169
-5.7413e-020 	0.00329315 	1.99971e-019 	97063 	246.694 	0.0953185
-5.736e-020 	0.00329351 	1.99971e-019 	91912.4 	244.546 	0.0910767
-5.736e-020 	0.00329535 	1.99971e-019 	86323.6 	241.042 	0.0867358
-5.80218e-020 	0.00331581 	1.99971e-019 	84895.9 	240.222 	0.0856233
-5.75982e-020 	0.00331817 	1.99971e-019 	82147 	238.872 	0.0833362
-5.71747e-020 	0.00332285 	1.99971e-019 	75993.8 	235.057 	0.078301
-5.84453e-020 	0.00334525 	1.99971e-019 	72572.9 	233.375 	0.0753579
-5.92923e-020 	0.0033595 	1.99971e-019 	70204.1 	231.604 	0.0734295
-5.75982e-020 	0.00337086 	1.99971e-019 	65142.3 	227.78 	0.0693112
-5.84413e-020 	0.00338887 	1.99971e-019 	60997.4 	225.317 	0.0655838
-5.89322e-020 	0.00339724 	1.99971e-019 	58842.4 	223.818 	0.0637145
-5.97648e-020 	0.00340253 	1.99971e-019 	57890.1 	222.878 	0.0629349
-6.10354e-020 	0.0034245 	1.99971e-019 	53054.3 	219.023 	0.0587056
-6.01393e-020 	0.00344625 	1.99971e-019 	49587.7 	216.069 	0.0556125
-6.09864e-020 	0.0034527 	1.99971e-019 	48415.7 	215.081 	0.0545559
-6.00398e-020 	0.00346313 	1.99971e-019 	47042.8 	213.745 	0.0533235
-6.00044e-020 	0.00348099 	1.99971e-019 	44314.8 	211.135 	0.0508719
-6.02499e-020 	0.00348961 	1.99971e-019 	43097 	209.877 	0.0497582
-5.94029e-020 	0.00351079 	1.99971e-019 	40056.2 	206.856 	0.0469298
-5.97e-020 	0.00352632 	1.99971e-019 	38339.2 	204.988 	0.045333
-5.84453e-020 	0.00354165 	1.99971e-019 	37080.5 	203.66 	0.0441323
-5.92923e-020 	0.00355262 	1.99971e-019 	35516.2 	201.711 	0.0426788
-5.60582e-020 	0.00357199 	1.99971e-019 	33531 	199.718 	0.0406903
-5.41354e-020 	0.00358969 	1.99971e-019 	31878.1 	197.835 	0.0390526
-5.32883e-020 	0.00360407 	1.99971e-019 	30649.8 	196.481 	0.037809
-5.37118e-020 	0.00362994 	1.99971e-019 	28836.7 	194.057 	0.0360044
-5.42101e-020 	0.00364023 	1.99971e-019 	28072.6 	193.058 	0.0352422
-5.49972e-020 	0.0036493 	1.99971e-019 	27533.3 	192.267 	0.034703
-5.58442e-020 	0.00367854 	1.99971e-019 	25831.9 	189.747 	0.032999
-5.65385e-020 	0.00371543 	1.99971e-019 	24026.4 	186.862 	0.0311645
-5.6962e-020 	0.00371707 	1.99971e-019 	23943.6 	186.73 	0.0310803
-5.65385e-020 	0.00371948 	1.99971e-019 	23824.9 	186.54 	0.0309553
-5.85449e-020 	0.00375537 	1.99971e-019 	21958.6 	183.61 	0.0289874
-5.64793e-020 	0.00377958 	1.99971e-019 	20940.9 	181.931 	0.0278935
-5.73263e-020 	0.00379456 	1.99971e-019 	20257.5 	180.806 	0.0271576
-5.81734e-020 	0.00382285 	1.99971e-019 	19284.7 	179.025 	0.0261063
-5.92923e-020 	0.00383554 	1.99971e-019 	18832.2 	178.186 	0.0256195
-5.88688e-020 	0.00384198 	1.99971e-019 	18650.4 	177.821 	0.0254223
-5.76838e-020 	0.00387751 	1.99971e-019 	17632.9 	175.773 	0.024317
-5.59042e-020 	0.00391392 	1.99971e-019 	16550.6 	173.54 	0.0231142
-5.40665e-020 	0.00392118 	1.99971e-019 	16332.7 	173.084 	0.0228724
-5.40665e-020 	0.00393146 	1.99971e-019 	16040.5 	172.469 	0.0225391
-5.58864e-020 	0.00396591 	1.99971e-019 	15053.4 	170.347 	0.0214203
-5.66433e-020 	0.00399101 	1.99971e-019 	14546.4 	169.141 	0.0208444
-5.59042e-020 	0.00401116 	1.99971e-019 	14101.1 	168.069 	0.0203386
-5.33631e-020 	0.00403943 	1.99971e-019 	13657.7 	166.954 	0.0198284
-5.2516e-020 	0.00405743 	1.99971e-019 	13358.8 	166.185 	0.0194872
-4.99749e-020 	0.00407155 	1.99971e-019 	13152.4 	165.631 	0.0192485
-4.91279e-020 	0.00410514 	1.99971e-019 	12628.8 	164.231 	0.0186403
-4.74338e-020 	0.00414503 	1.99971e-019 	11947.4 	162.474 	0.0178223
-4.74338e-020 	0.00415449 	1.99971e-019 	11771 	162.018 	0.017611
-4.76839e-020 	0.0041618 	1.99971e-019 	11657.5 	161.693 	0.0174748
-4.40457e-020 	0.00420483 	1.99971e-019 	10980.9 	159.694 	0.0166687
-4.56965e-020 	0.00424995 	1.99971e-019 	10478.9 	158.125 	0.0160646
-4.48927e-020 	0.00425644 	1.99971e-019 	10401.2 	157.883 	0.0159705
-4.48494e-020 	0.0042654 	1.99971e-019 	10335.2 	157.679 	0.0158891
-4.48178e-020 	0.00431001 	1.99971e-019 	9919.29 	156.34 	0.015381
-4.40457e-020 	0.00434086 	1.99971e-019 	9648.2 	155.425 	0.0150468
-4.24622e-020 	0.00436392 	1.99971e-019 	9388 	154.541 	0.0147257
-4.41563e-020 	0.00439882 	1.99971e-019 	9020.84 	153.341 	0.0142575
-4.33011e-020 	0.00441993 	1.99971e-019 	8782.18 	152.549 	0.0139546
-4.26299e-020 	0.00443467 	1.99971e-019 	8640.05 	152.031 	0.0137739
-4.17829e-020 	0.004477 	1.99971e-019 	8186.63 	150.383 	0.0131963
-4.20467e-020 	0.00452949 	1.99971e-019 	7796.67 	148.82 	0.0127003
-4.24703e-020 	0.00453468 	1.99971e-019 	7756.62 	148.661 	0.012649
-4.15046e-020 	0.00454323 	1.99971e-019 	7707 	148.477 	0.012583
-4.06576e-020 	0.00459466 	1.99971e-019 	7363.44 	147.172 	0.0121292
-3.89635e-020 	0.00462431 	1.99971e-019 	7178.66 	146.41 	0.0118847
-3.72694e-020 	0.00465686 	1.99971e-019 	6961.64 	145.517 	0.011597
-3.61386e-020 	0.00471098 	1.99971e-019 	6627.63 	144.09 	0.0111493
-3.64224e-020 	0.0047204 	1.99971e-019 	6563.54 	143.818 	0.0110633
-3.64224e-020 	0.00472651 	1.99971e-019 	6533.42 	143.686 	0.0110222
-3.5612e-020 	0.00478595 	1.99971e-019 	6214.24 	142.289 	0.0105875
-3.46395e-020 	0.00483473 	1.99971e-019 	5994.7 	141.297 	0.0102842
-3.46395e-020 	0.00485284 	1.99971e-019 	5905.19 	140.886 	0.010161
-3.63336e-020 	0.00487836 	1.99971e-019 	5782.66 	140.278 	0.00999194
-3.38813e-020 	0.00491845 	1.99971e-019 	5580.18 	139.27 	0.00971308
-3.38813e-020 	0.00494948 	1.99971e-019 	5451.85 	138.586 	0.00953547
-3.5527e-020 	0.00498709 	1.99971e-019 	5291.16 	137.722 	0.00931372
-3.72694e-020 	0.00504715 	1.99971e-019 	5082.07 	136.642 	0.00901607
-3.71967e-020 	0.0050579 	1.99971e-019 	5044.53 	136.443 	0.00896302
-3.65448e-020 	0.00506454 	1.99971e-019 	5024.16 	136.338 	0.00893349
-3.48507e-020 	0.0051293 	1.99971e-019 	4820.96 	135.259 	0.00864088
-3.21873e-020 	0.00518409 	1.99971e-019 	4637.59 	134.182 	0.00837795
-2.97315e-020 	0.00520192 	1.99971e-019 	4573.98 	133.804 	0.00828686
-3.14256e-020 	0.00522761 	1.99971e-019 	4485.44 	133.239 	0.00815982
-3.15911e-020 	0.00527549 	1.99971e-019 	4333.08 	132.276 	0.00794127
-2.68486e-020 	0.00530987 	1.99971e-019 	4252.36 	131.757 	0.00782382
-2.85427e-020 	0.00535006 	1.99971e-019 	4152.92 	131.099 	0.00767944
-2.26135e-020 	0.00540823 	1.99971e-019 	4015.63 	130.201 	0.00747612
-2.29942e-020 	0.00542646 	1.99971e-019 	3970.7 	129.9 	0.00741024
-2.36675e-020 	0.00544013 	1.99971e-019 	3944.28 	129.733 	0.00737036
-2.28204e-020 	0.00550317 	1.99971e-019 	3813.62 	128.908 	0.00717194
-2.68815e-020 	0.0055733 	1.99971e-019 	3672.37 	127.939 	0.00695861
-2.6458e-020 	0.00557849 	1.99971e-019 	3661.75 	127.862 	0.00694266
-2.56109e-020 	0.00558663 	1.99971e-019 	3644.54 	127.733 	0.00691664
-2.29348e-020 	0.00566061 	1.99971e-019 	3486.54 	126.545 	0.00667893
-2.4825e-020 	0.00570937 	1.99971e-019 	3406.53 	125.935 	0.00655723
-2.99072e-020 	0.00574368 	1.99971e-019 	3339.83 	125.423 	0.00645485
-2.65191e-020 	0.0058034 	1.99971e-019 	3223.14 	124.507 	0.00627423
-2.62239e-020 	0.0058296 	1.99971e-019 	3169.11 	124.081 	0.00619102
-2.65356e-020 	0.00584307 	1.99971e-019 	3146.47 	123.896 	0.00615605
-2.06064e-020 	0.005917 	1.99971e-019 	3028.19 	122.916 	0.00597184
-1.65613e-020 	0.00597959 	1.99971e-019 	2930.99 	122.119 	0.00581849
-1.99495e-020 	0.00600655 	1.99971e-019 	2900.01 	121.858 	0.00576932
-1.82554e-020 	0.00604936 	1.99971e-019 	2847.43 	121.427 	0.00568437
-1.69407e-020 	0.00609805 	1.99971e-019 	2779.69 	120.865 	0.00557555
-2.20229e-020 	0.00612925 	1.99971e-019 	2742.83 	120.552 	0.00551574
-2.24076e-020 	0.00618859 	1.99971e-019 	2674.84 	119.956 	0.0054059
-2.49875e-020 	0.00627551 	1.99971e-019 	2576.99 	119.148 	0.00524345
-2.44732e-020 	0.0062806 	1.99971e-019 	2571.14 	119.097 	0.00523385
-2.42439e-020 	0.00628412 	1.99971e-019 	2567.28 	119.061 	0.00522755
-2.17028e-020 	0.00637446 	1.99971e-019 	2473.42 	118.163 	0.00507469
-1.87134e-020 	0.00644402 	1.99971e-019 	2404.35 	117.463 	0.00496231
-1.52466e-020 	0.00646886 	1.99971e-019 	2380.22 	117.206 	0.00492348
-1.18585e-020 	0.00650382 	1.99971e-019 	2352.6 	116.914 	0.0048783
-1.44468e-020 	0.00656419 	1.99971e-019 	2297.2 	116.308 	0.00478836
-8.90892e-021 	0.00660535 	1.99971e-019 	2262.54 	115.944 	0.00473059
-5.52079e-021 	0.00666277 	1.99971e-019 	2215.11 	115.437 	0.00465199
-2.97969e-021 	0.00674917 	1.99971e-019 	2165.45 	114.972 	0.0045662
-5.34007e-021 	0.00676258 	1.99971e-019 	2156.03 	114.881 	0.00455
-4.23516e-021 	0.00677178 	1.99971e-019 	2148.46 	114.801 	0.00453697
-7.84315e-021 	0.00686365 	1.99971e-019 	2061.72 	113.924 	0.00438718
-5.71102e-021 	0.00694537 	1.99971e-019 	1991.82 	113.197 	0.00426545
-6.77626e-021 	0.00696588 	1.99971e-019 	1971.53 	112.97 	0.00423076
-8.47033e-021 	0.00699931 	1.99971e-019 	1947.82 	112.675 	0.00419062
-1.01644e-020 	0.00706998 	1.99971e-019 	1893.53 	111.998 	0.00409875
-9.7582e-021 	0.0071193 	1.99971e-019 	1865.43 	111.621 	0.00405132
-3.38813e-021 	0.00717818 	1.99971e-019 	1826.66 	111.093 	0.00398634
-8.06413e-021 	0.00724663 	1.99971e-019 	1786.52 	110.583 	0.00391651
-1.35525e-020 	0.00729307 	1.99971e-019 	1756.4 	110.182 	0.00386465
-1.69407e-020 	0.00732838 	1.99971e-019 	1740.85 	109.961 	0.00383798
-1.35525e-020 	0.00740118 	1.99971e-019 	1695.34 	109.37 	0.00375798
-1.48231e-020 	0.00750354 	1.99971e-019 	1655.9 	108.867 	0.00368763
-1.45054e-020 	0.00750485 	1.99971e-019 	1655.35 	108.86 	0.00368665
-1.46113e-020 	0.00750616 	1.99971e-019 	1654.71 	108.852 	0.00368546
-2.03288e-020 	0.00761408 	1.99971e-019 	1585.77 	108.021 	0.00355881
-2.38409e-020 	0.00770264 	1.99971e-019 	1547.8 	107.573 	0.00348807
-2.20229e-020 	0.0077274 	1.99971e-019 	1532.71 	107.367 	0.0034608
-1.52466e-020 	0.00776217 	1.99971e-019 	1516.98 	107.127 	0.00343272
-1.54025e-020 	0.00784226 	1.99971e-019 	1466.17 	106.335 	0.00334255
-1.20251e-020 	0.00789847 	1.99971e-019 	1444.48 	105.97 	0.00330431
-1.88014e-020 	0.00795943 	1.99971e-019 	1410.17 	105.411 	0.00324322
-1.01644e-020 	0.00805917 	1.99971e-019 	1378.65 	104.912 	0.00318577
-8.47033e-021 	0.0080778 	1.99971e-019 	1370.11 	104.776 	0.0031702
-9.31736e-021 	0.00808841 	1.99971e-019 	1365.67 	104.705 	0.00316195
-1.35525e-020 	0.00819766 	1.99971e-019 	1298.32 	103.639 	0.00303682
-1.35525e-020 	0.00828765 	1.99971e-019 	1261.01 	103.037 	0.00296682
-1.35525e-020 	0.0083206 	1.99971e-019 	1243.31 	102.74 	0.00293381
-1.3972e-020 	0.00836948 	1.99971e-019 	1228.5 	102.501 	0.00290547
-1.69407e-020 	0.00844587 	1.99971e-019 	1198.71 	102.014 	0.00284875
-2.03288e-020 	0.00850044 	1.99971e-019 	1189.72 	101.867 	0.00283146
-3.11243e-020 	0.0085718 	1.99971e-019 	1168.73 	101.514 	0.00279122
-2.5411e-020 	0.00867336 	1.99971e-019 	1150.83 	101.223 	0.00275637
-2.40831e-020 	0.00869875 	1.99971e-019 	1143.96 	101.103 	0.0027432
-2.3881e-020 	0.00871626 	1.99971e-019 	1138.9 	101.012 	0.00273344
-3.23514e-020 	0.00882731 	1.99971e-019 	1102.41 	100.325 	0.00266396
-2.92701e-020 	0.0089358 	1.99971e-019 	1074.83 	99.8172 	0.00261056
-3.04932e-020 	0.00895736 	1.99971e-019 	1067.91 	99.6849 	0.00259724
-3.72694e-020 	0.00898846 	1.99971e-019 	1062.05 	99.586 	0.0025855
-4.00383e-020 	0.00908923 	1.99971e-019 	1036.79 	99.1278 	0.00253576
-4.22963e-020 	0.00915905 	1.99971e-019 	1027.13 	98.9636 	0.00251628