0 	0 	0 	1.379e+006 	300 	1.11448
-3.34597e-021 	8.49561e-005 	1.99971e-019 	86361.2 	300 	0.0697956
1.85288e-021 	0.000165142 	1.99971e-019 	84554.6 	300 	0.0683356
1.79995e-021 	0.000165952 	1.99971e-019 	84534.9 	300 	0.0683197
1.58819e-021 	0.000167208 	1.99971e-019 	84505.1 	299.999 	0.0682956
3.38813e-021 	0.000246429 	1.99971e-019 	82654 	299.999 	0.0667996
-3.38813e-021 	0.000286935 	1.99971e-019 	81587.7 	299.999 	0.065938
-4.95617e-021 	0.000324576 	1.99971e-019 	80563.3 	299.998 	0.0651102
-8.09903e-021 	0.000386443 	1.99971e-019 	78309.4 	299.997 	0.0632889
-8.94607e-021 	0.00039981 	1.99971e-019 	77837.2 	299.996 	0.0629074
-7.6233e-021 	0.000409413 	1.99971e-019 	77521.5 	299.996 	0.0626523
-3.38813e-021 	0.000474922 	1.99971e-019 	75088.8 	299.992 	0.0606869
-1.29248e-020 	0.000525915 	1.99971e-019 	72816 	299.988 	0.0588509
-1.35525e-020 	0.000545077 	1.99971e-019 	71893.2 	299.986 	0.0581055
-1.39213e-020 	0.000577816 	1.99971e-019 	70040.7 	299.98 	0.0566092
-1.52466e-020 	0.000613877 	1.99971e-019 	67926.1 	299.975 	0.0549012
-1.69407e-020 	0.000636855 	1.99971e-019 	66028.8 	299.969 	0.0533687
-2.03288e-020 	0.000680922 	1.99971e-019 	62171 	299.956 	0.0502527
-2.11758e-020 	0.000744184 	1.99971e-019 	56110.6 	299.93 	0.045358
-2.15993e-020 	0.000747971 	1.99971e-019 	55767 	299.928 	0.0450805
-2.07523e-020 	0.000754798 	1.99971e-019 	55126.5 	299.924 	0.0445634
-2.37169e-020 	0.000812401 	1.99971e-019 	49417.8 	299.886 	0.0399535
-2.44515e-020 	0.000841573 	1.99971e-019 	46448.6 	299.862 	0.0375558
-2.82213e-020 	0.000874088 	1.99971e-019 	43055.7 	299.832 	0.0348161
-2.89624e-020 	0.0009338 	1.99971e-019 	37819.5 	299.768 	0.0305885
-2.89326e-020 	0.000934775 	1.99971e-019 	37732.8 	299.766 	0.0305185
-2.8905e-020 	0.000936905 	1.99971e-019 	37599.2 	299.764 	0.0304107
-2.82237e-020 	0.000994329 	1.99971e-019 	33800 	299.693 	0.0273444
-2.99177e-020 	0.00102109 	1.99971e-019 	32799 	299.661 	0.0265373
-3.28103e-020 	0.00105169 	1.99971e-019 	31693.4 	299.622 	0.0256462
-3.59866e-020 	0.00110517 	1.99971e-019 	30988.8 	299.567 	0.0250808
-3.58085e-020 	0.00110764 	1.99971e-019 	30961.6 	299.564 	0.025059
-3.62107e-020 	0.00111255 	1.99971e-019 	30946.5 	299.56 	0.0250471
-3.53024e-020 	0.00116181 	1.99971e-019 	30801.9 	299.514 	0.0249339
-3.53024e-020 	0.00118635 	1.99971e-019 	30763.8 	299.5 	0.0249042
-4.04544e-020 	0.00121509 	1.99971e-019 	30729.3 	299.481 	0.0248779
-4.55366e-020 	0.00126354 	1.99971e-019 	30678.8 	299.469 	0.024838
-4.5688e-020 	0.00126595 	1.99971e-019 	30677 	299.468 	0.0248366
-4.61633e-020 	0.00127065 	1.99971e-019 	30673.1 	299.469 	0.0248334
-4.40484e-020 	0.00131575 	1.99971e-019 	30641.8 	299.465 	0.0248084
-4.57425e-020 	0.00133853 	1.99971e-019 	30619.9 	299.475 	0.0247898
-4.60365e-020 	0.00136471 	1.99971e-019 	30602.1 	299.484 	0.0247747
-4.85776e-020 	0.00141004 	1.99971e-019 	30551.8 	299.519 	0.024731
-4.87829e-020 	0.00141176 	1.99971e-019 	30549.9 	299.52 	0.0247294
-4.87044e-020 	0.00141533 	1.99971e-019 	30547.6 	299.525 	0.0247272
-4.78399e-020 	0.00145799 	1.99971e-019 	30524.2 	299.569 	0.0247046
-4.78399e-020 	0.00147866 	1.99971e-019 	30511.9 	299.6 	0.024692
-4.81103e-020 	0.00150232 	1.99971e-019 	30494.4 	299.631 	0.0246753
-5.10749e-020 	0.00154483 	1.99971e-019 	30456.6 	299.708 	0.0246384
-5.12294e-020 	0.00154543 	1.99971e-019 	30456.1 	299.709 	0.024638
-5.12455e-020 	0.00154657 	1.99971e-019 	30455.1 	299.711 	0.024637
-5.27756e-020 	0.00158764 	1.99971e-019 	30421.6 	299.788 	0.0246035
-5.36226e-020 	0.00160878 	1.99971e-019 	30403.5 	299.84 	0.0245847
-5.51794e-020 	0.00162912 	1.99971e-019 	30387.3 	299.884 	0.0245679
-5.80218e-020 	0.00166732 	1.99971e-019 	30356.9 	299.985 	0.0245351
-5.80218e-020 	0.00166886 	1.99971e-019 	30355.8 	299.988 	0.0245339
-5.79159e-020 	0.00166968 	1.99971e-019 	30355.1 	299.99 	0.0245332
-5.61955e-020 	0.00170776 	1.99971e-019 	30326.8 	300.082 	0.0245029
-5.36544e-020 	0.00172866 	1.99971e-019 	30310.3 	300.14 	0.0244848
-5.20092e-020 	0.00174596 	1.99971e-019 	30297.9 	300.182 	0.0244714
-5.20925e-020 	0.0017779 	1.99971e-019 	30273 	300.275 	0.0244437
-5.2516e-020 	0.00178256 	1.99971e-019 	30269.7 	300.287 	0.02444
-5.2516e-020 	0.00178505 	1.99971e-019 	30267.6 	300.294 	0.0244377
-5.26435e-020 	0.00181855 	1.99971e-019 	30241 	300.384 	0.024409
-5.43376e-020 	0.00184057 	1.99971e-019 	30223.2 	300.444 	0.0243898
-5.24645e-020 	0.00185358 	1.99971e-019 	30213.2 	300.477 	0.0243789
-5.33631e-020 	0.0018797 	1.99971e-019 	30191.8 	300.545 	0.0243562
-5.44743e-020 	0.00188773 	1.99971e-019 	30185.5 	300.564 	0.0243496
-5.53214e-020 	0.00189168 	1.99971e-019 	30182.4 	300.574 	0.0243463
-5.4663e-020 	0.00192066 	1.99971e-019 	30160 	300.641 	0.0243228
-5.551e-020 	0.00194082 	1.99971e-019 	30141.4 	300.691 	0.0243038
-5.56148e-020 	0.00195274 	1.99971e-019 	30131.5 	300.718 	0.0242935
-5.2516e-020 	0.00197421 	1.99971e-019 	30112.4 	300.768 	0.0242741
-5.25717e-020 	0.00198403 	1.99971e-019 	30103.8 	300.789 	0.0242655
-5.17246e-020 	0.00198941 	1.99971e-019 	30099.2 	300.799 	0.024261
-5.1242e-020 	0.00201476 	1.99971e-019 	30076.1 	300.845 	0.0242387
-5.2089e-020 	0.00203493 	1.99971e-019 	30056 	300.879 	0.0242197
-5.16805e-020 	0.00204453 	1.99971e-019 	30046.8 	300.894 	0.0242112
-5.20925e-020 	0.00206227 	1.99971e-019 	30027.8 	300.923 	0.0241935
-5.1669e-020 	0.00207317 	1.99971e-019 	30016.4 	300.939 	0.024183
-5.1669e-020 	0.00207923 	1.99971e-019 	30009.6 	300.948 	0.0241768
-5.27189e-020 	0.00210118 	1.99971e-019 	29986.3 	300.977 	0.0241557
-5.14483e-020 	0.00212297 	1.99971e-019 	29974.1 	300.989 	0.0241449
-5.17263e-020 	0.00212849 	1.99971e-019 	29955 	301.014 	0.0241276
-5.1669e-020 	0.00213857 	1.99971e-019 	29944.1 	301.024 	0.024118
-5.11911e-020 	0.00215502 	1.99971e-019 	29923.8 	301.041 	0.0241002
-5.0344e-020 	0.00216369 	1.99971e-019 	29901.5 	301.056 	0.024081
-5.16856e-020 	0.00218091 	1.99971e-019 	29889.8 	301.063 	0.0240711
-5.0415e-020 	0.00220231 	1.99971e-019 	29875.2 	301.068 	0.024059
-5.01013e-020 	0.00220628 	1.99971e-019 	29850 	301.075 	0.024038
-4.99749e-020 	0.0022138 	1.99971e-019 	29841.4 	301.082 	0.0240306
-5.02753e-020 	0.00223081 	1.99971e-019 	29818.6 	301.087 	0.0240119
-4.94282e-020 	0.00224032 	1.99971e-019 	29805.1 	301.088 	0.0240009
-5.17846e-020 	0.00225455 	1.99971e-019 	29778.7 	301.088 	0.0239796
-5.24199e-020 	0.00227622 	1.99971e-019 	29752.9 	301.087 	0.0239589
-5.20641e-020 	0.00227809 	1.99971e-019 	29739.6 	301.085 	0.0239484
-5.18808e-020 	0.00228155 	1.99971e-019 	29712.7 	301.081 	0.0239271
-5.2516e-020 	0.00230055 	1.99971e-019 	29701.4 	301.078 	0.0239182
-5.2516e-020 	0.00231126 	1.99971e-019 	29673.8 	301.07 	0.0238966
-5.252e-020 	0.00232249 	1.99971e-019 	29656.2 	301.062 	0.023883
-5.21984e-020 	0.00234187 	1.99971e-019 	29645.7 	301.059 	0.0238748
-5.19136e-020 	0.00234404 	1.99971e-019 	29617.9 	301.046 	0.0238534
-5.21254e-020 	0.00234526 	1.99971e-019 	29589 	301.03 	0.0238315
-5.2235e-020 	0.00236485 	1.99971e-019 	29572.7 	301.021 	0.023819
-5.35056e-020 	0.00237739 	1.99971e-019 	29552.2 	301.008 	0.0238035
-5.40496e-020 	0.00238521 	1.99971e-019 	29515.8 	300.985 	0.0237761
-5.46336e-020 	0.00240097 	1.99971e-019 	29507.9 	300.975 	0.0237704
-5.43193e-020 	0.00240496 	1.99971e-019 	29474.9 	300.949 	0.023746
-5.43193e-020 	0.00240707 	1.99971e-019 	29441.3 	300.919 	0.0237212
-5.2116e-020 	0.0024257 	1.99971e-019 	29423.2 	300.903 	0.0237079
-5.33866e-020 	0.00243488 	1.99971e-019 	29384.7 	300.866 	0.0236798
-5.31997e-020 	0.00244358 	1.99971e-019 	29362.3 	300.842 	0.0236636
-5.20925e-020 	0.00245791 	1.99971e-019 	29329.1 	300.808 	0.0236395
-5.17955e-020 	0.00246134 	1.99971e-019 	29313.6 	300.792 	0.0236283
-5.15837e-020 	0.0024634 	1.99971e-019 	29276.6 	300.749 	0.0236019
-5.17495e-020 	0.00247897 	1.99971e-019 	29256.8 	300.726 	0.0235877
-5.17495e-020 	0.00249024 	1.99971e-019 	29232.4 	300.699 	0.0235702
-5.21023e-020 	0.00249621 	1.99971e-019 	29190.9 	300.65 	0.0235406
-5.10337e-020 	0.00250679 	1.99971e-019 	29175 	300.63 	0.0235293
-5.11683e-020 	0.00251298 	1.99971e-019 	29134.9 	300.58 	0.0235009
-5.07448e-020 	0.00251644 	1.99971e-019 	29092.7 	300.521 	0.0234714
-5.15314e-020 	0.00252957 	1.99971e-019 	29067.8 	300.491 	0.0234536
-5.11079e-020 	0.00254166 	1.99971e-019 	29037.8 	300.456 	0.0234322
-5.22259e-020 	0.00254543 	1.99971e-019 	28995.1 	300.386 	0.0234032
-5.1669e-020 	0.00255292 	1.99971e-019 	28978.3 	300.356 	0.023392
-5.14908e-020 	0.00256094 	1.99971e-019 	28935.6 	300.284 	0.0233631
-5.10673e-020 	0.00256523 	1.99971e-019 	28910.1 	300.246 	0.0233454
-5.09501e-020 	0.00257596 	1.99971e-019 	28857.8 	300.169 	0.0233092
-5.0822e-020 	0.00258717 	1.99971e-019 	28807.9 	300.093 	0.0232747
-5.07306e-020 	0.00259056 	1.99971e-019 	28781.8 	300.055 	0.0232567
-5.01867e-020 	0.00259682 	1.99971e-019 	28729.5 	299.973 	0.0232207
-5.05917e-020 	0.00260497 	1.99971e-019 	28706.8 	299.937 	0.0232052
-5.10152e-020 	0.00260958 	1.99971e-019 	28654.1 	299.851 	0.0231692
-5.16374e-020 	0.00261874 	1.99971e-019 	28626 	299.806 	0.02315
-5.14257e-020 	0.00263091 	1.99971e-019 	28592.3 	299.751 	0.0231269
-5.16184e-020 	0.00263224 	1.99971e-019 	28533.8 	299.655 	0.023087
-5.15631e-020 	0.00263447 	1.99971e-019 	28510.7 	299.613 	0.0230715
-5.15941e-020 	0.00264536 	1.99971e-019 	28453.9 	299.516 	0.023033
-5.11706e-020 	0.00265172 	1.99971e-019 	28421.8 	299.462 	0.0230112
-5.18329e-020 	0.00265813 	1.99971e-019 	28357.6 	299.356 	0.0229674
-5.16161e-020 	0.00266994 	1.99971e-019 	28334.9 	299.309 	0.0229526
-5.16161e-020 	0.00267076 	1.99971e-019 	28274.8 	299.201 	0.0229122
-5.16161e-020 	0.00267123 	1.99971e-019 	28211 	299.085 	0.0228694
-5.1669e-020 	0.00268287 	1.99971e-019 	28172.7 	299.016 	0.0228436
-5.20925e-020 	0.00269036 	1.99971e-019 	28106.6 	298.893 	0.0227993
-5.22175e-020 	0.00269466 	1.99971e-019 	28066.1 	298.818 	0.0227722
-5.2516e-020 	0.0027024 	1.99971e-019 	28038.6 	298.766 	0.0227538
-5.26373e-020 	0.00270627 	1.99971e-019 	27970.3 	298.637 	0.0227082
-5.26373e-020 	0.00270844 	1.99971e-019 	27899.3 	298.503 	0.0226608
-5.13663e-020 	0.00271745 	1.99971e-019 	27860.9 	298.431 	0.022635
-5.1578e-020 	0.00272578 	1.99971e-019 	27815.4 	298.346 	0.0226046
-5.15532e-020 	0.00272834 	1.99971e-019 	27737.9 	298.197 	0.0225528
-5.14573e-020 	0.00273244 	1.99971e-019 	27667.7 	298.058 	0.0225062
-5.12455e-020 	0.00273891 	1.99971e-019 	27633.7 	297.99 	0.0224837
-5.18808e-020 	0.00274291 	1.99971e-019 	27555.2 	297.834 	0.0224315
-5.23416e-020 	0.00274927 	1.99971e-019 	27506.4 	297.739 	0.0223989
-5.24739e-020 	0.00275926 	1.99971e-019 	27461.8 	297.65 	0.0223693
-5.29206e-020 	0.00276931 	1.99971e-019 	27254.3 	297.228 	0.0222318
-5.29396e-020 	0.00277494 	1.99971e-019 	27205.1 	297.129 	0.022199
-5.2516e-020 	0.00277899 	1.99971e-019 	27115.3 	296.943 	0.0221396
-5.26219e-020 	0.00278759 	1.99971e-019 	27075.4 	296.861 	0.0221131
-5.25672e-020 	0.00278837 	1.99971e-019 	26986.4 	296.677 	0.0220542
-5.25143e-020 	0.00278873 	1.99971e-019 	26896.6 	296.485 	0.021995
-5.2268e-020 	0.00279736 	1.99971e-019 	26849.3 	296.383 	0.0219639
-5.24797e-020 	0.00280212 	1.99971e-019 	26790 	296.257 	0.0219247
-5.32308e-020 	0.00280615 	1.99971e-019 	26685.5 	296.034 	0.0218556
-5.35748e-020 	0.00281288 	1.99971e-019 	26647.1 	295.95 	0.0218304
-5.3305e-020 	0.00281481 	1.99971e-019 	26547.3 	295.736 	0.0217643
-5.35168e-020 	0.00281594 	1.99971e-019 	26490.3 	295.615 	0.0217265
-5.29183e-020 	0.00282325 	1.99971e-019 	26379.2 	295.373 	0.0216531
-5.27065e-020 	0.00282909 	1.99971e-019 	26273.6 	295.139 	0.0215835
-5.27788e-020 	0.00283153 	1.99971e-019 	26216.1 	295.012 	0.0215456
-5.28337e-020 	0.00283574 	1.99971e-019 	26104.6 	294.763 	0.021472
-5.27278e-020 	0.00283947 	1.99971e-019 	26054.1 	294.65 	0.0214387
-5.29396e-020 	0.00284177 	1.99971e-019 	25938 	294.389 	0.021362
-5.32078e-020 	0.0028473 	1.99971e-019 	25865.2 	294.229 	0.0213137
-5.35784e-020 	0.00285426 	1.99971e-019 	25800.3 	294.083 	0.0212707
-5.36265e-020 	0.00285497 	1.99971e-019 	25678 	293.807 	0.0211899
-5.36807e-020 	0.00285619 	1.99971e-019 	25618.5 	293.678 	0.02115
-5.32793e-020 	0.00286248 	1.99971e-019 	25492.1 	293.396 	0.021066
-5.31513e-020 	0.0028657 	1.99971e-019 	25372 	293.11 	0.0209871
-5.2996e-020 	0.00286952 	1.99971e-019 	25300.7 	292.962 	0.0209387
-5.30454e-020 	0.00287533 	1.99971e-019 	25174 	292.652 	0.020856
-5.32226e-020 	0.00287656 	1.99971e-019 	25113.6 	292.507 	0.0208162
-5.31167e-020 	0.0028774 	1.99971e-019 	24979.4 	292.178 	0.0207282
-5.26813e-020 	0.00288383 	1.99971e-019 	24904.6 	291.991 	0.0206795
-5.28931e-020 	0.00288722 	1.99971e-019 	24813.2 	291.771 	0.0206191
-5.33804e-020 	0.00289058 	1.99971e-019 	24659.4 	291.403 	0.0205172
-5.3416e-020 	0.00289598 	1.99971e-019 	24604.2 	291.264 	0.0204809
-5.33593e-020 	0.00289724 	1.99971e-019 	24452.9 	290.901 	0.0203804
-5.33593e-020 	0.00289802 	1.99971e-019 	24368.3 	290.696 	0.0203243
-5.31311e-020 	0.00290378 	1.99971e-019 	24212.7 	290.316 	0.0202209
-5.37664e-020 	0.00290827 	1.99971e-019 	24038.8 	289.887 	0.0201054
-5.35302e-020 	0.00291019 	1.99971e-019 	23952 	289.672 	0.0200477
-5.37866e-020 	0.00291346 	1.99971e-019 	23785.5 	289.252 	0.0199371
-5.35748e-020 	0.00291639 	1.99971e-019 	23710.4 	289.064 	0.0198872
-5.39984e-020 	0.00291816 	1.99971e-019 	23537.5 	288.623 	0.0197723
-5.39984e-020 	0.00292249 	1.99971e-019 	23430 	288.353 	0.0197004
-5.36807e-020 	0.0029281 	1.99971e-019 	23245.2 	287.877 	0.0195773
-5.37337e-020 	0.00292857 	1.99971e-019 	23135.7 	287.597 	0.0195041
-5.37982e-020 	0.00292934 	1.99971e-019 	22954.4 	287.12 	0.0193833
-5.37866e-020 	0.00293455 	1.99971e-019 	22880.3 	286.927 	0.0193338
-5.35748e-020 	0.00293792 	1.99971e-019 	22665.2 	286.362 	0.0191898
-5.31513e-020 	0.00294038 	1.99971e-019 	22543.1 	286.043 	0.0191076
-5.31513e-020 	0.00294413 	1.99971e-019 	22460.5 	285.819 	0.0190525
-5.29396e-020 	0.00294614 	1.99971e-019 	22276.4 	285.325 	0.0189292
-5.30454e-020 	0.00294737 	1.99971e-019 	22044.8 	284.696 	0.0187737
-5.29396e-020 	0.00295171 	1.99971e-019 	21908.9 	284.322 	0.0186826
-5.31513e-020 	0.00295648 	1.99971e-019 	21787.3 	283.985 	0.0186008
-5.32572e-020 	0.00295719 	1.99971e-019 	21563.2 	283.359 	0.0184503
-5.32091e-020 	0.00295827 	1.99971e-019 	21329.1 	282.698 	0.0182924
-5.3368e-020 	0.00296264 	1.99971e-019 	21223.7 	282.4 	0.0182214
-5.3368e-020 	0.0029654 	1.99971e-019 	20977.9 	281.693 	0.0180554
-5.37014e-020 	0.002968 	1.99971e-019 	20821.4 	281.244 	0.0179495
-5.39984e-020 	0.00297217 	1.99971e-019 	20580.5 	280.536 	0.0177863
-5.39734e-020 	0.00297356 	1.99971e-019 	20455.2 	280.169 	0.0177013
-5.40793e-020 	0.00297455 	1.99971e-019 	20300.1 	279.707 	0.0175958
-5.41659e-020 	0.00297924 	1.99971e-019 	20010 	278.842 	0.0173985
-5.39012e-020 	0.0029846 	1.99971e-019 	19830.4 	278.296 	0.0172758
-5.39454e-020 	0.00298513 	1.99971e-019 	19518.9 	277.348 	0.0170628
-5.39454e-020 	0.00298558 	1.99971e-019 	19358.8 	276.849 	0.0169529
-5.42101e-020 	0.00299107 	1.99971e-019 	19028.6 	275.836 	0.0167253
-5.45562e-020 	0.00299636 	1.99971e-019 	18682.6 	274.744 	0.0164859
-5.45297e-020 	0.00299676 	1.99971e-019 	18519.3 	274.231 	0.0163728
-5.42483e-020 	0.00300259 	1.99971e-019 	17950.1 	272.344 	0.0159794
-5.40365e-020 	0.003007 	1.99971e-019 	17529.3 	270.911 	0.0156864
-5.42552e-020 	0.00300912 	1.99971e-019 	17316.6 	270.199 	0.0155376
-5.36592e-020 	0.00301185 	1.99971e-019 	16802.2 	268.416 	0.0151746
-5.34475e-020 	0.00301655 	1.99971e-019 	16571.8 	267.607 	0.0150129
-5.32357e-020 	0.00302036 	1.99971e-019 	16073.1 	265.813 	0.0146583
-5.30001e-020 	0.00302411 	1.99971e-019 	15769.7 	264.746 	0.0144405
-5.29762e-020 	0.00302764 	1.99971e-019 	15351.3 	263.253 	0.0141361
-5.25527e-020 	0.0030309 	1.99971e-019 	15090.8 	262.287 	0.0139485
-5.2288e-020 	0.00303714 	1.99971e-019 	14523.6 	260.101 	0.0135345
-5.23151e-020 	0.00303837 	1.99971e-019 	14407.6 	259.659 	0.0134503
-5.23572e-020 	0.00303881 	1.99971e-019 	14095.9 	258.473 	0.0132199
-5.24631e-020 	0.00304009 	1.99971e-019 	13879.4 	257.464 	0.013065
-5.2516e-020 	0.00304859 	1.99971e-019 	13240.8 	254.676 	0.0126029
-5.30082e-020 	0.00305358 	1.99971e-019 	12598.9 	251.832 	0.0121248
-5.2911e-020 	0.00305788 	1.99971e-019 	12197.7 	249.987 	0.0118271
-5.29396e-020 	0.00306216 	1.99971e-019 	11611 	247.192 	0.0113815
-5.29396e-020 	0.00306755 	1.99971e-019 	11312.4 	245.788 	0.0111556
-5.27849e-020 	0.00307195 	1.99971e-019 	10947.4 	243.963 	0.0108729
-5.37866e-020 	0.0030783 	1.99971e-019 	10266.1 	240.54 	0.0103441
-5.30454e-020 	0.00308755 	1.99971e-019 	9991.46 	239.036 	0.0101268
-5.30454e-020 	0.00308954 	1.99971e-019 	9296.54 	235.35 	0.00957335
-5.30454e-020 	0.00309082 	1.99971e-019 	9047.17 	233.827 	0.00937428
-5.29396e-020 	0.0031015 	1.99971e-019 	8407.67 	230.056 	0.00885705
-5.29396e-020 	0.0031101 	1.99971e-019 	7870.17 	226.676 	0.00841131
-5.33631e-020 	0.00311354 	1.99971e-019 	7553.95 	224.725 	0.00814617
-5.38577e-020 	0.00311859 	1.99971e-019 	7055.78 	221.279 	0.00772319
-5.54807e-020 	0.00312652 	1.99971e-019 	6829.92 	219.87 	0.00752789
-5.51282e-020 	0.00313245 	1.99971e-019 	6557.53 	217.784 	0.00729409
-5.49951e-020 	0.00314016 	1.99971e-019 	6074.79 	214.274 	0.0068703
-5.5621e-020 	0.00315155 	1.99971e-019 	5886.19 	212.748 	0.00670104
-5.59042e-020 	0.00315462 	1.99971e-019 	5426.46 	209.094 	0.00628866
-5.59042e-020 	0.00315668 	1.99971e-019 	5227.71 	207.394 	0.00610566
-5.50571e-020 	0.00316955 	1.99971e-019 	4839.86 	204.041 	0.00574825
-5.64336e-020 	0.00318075 	1.99971e-019 	4672.48 	202.487 	0.0055906
-5.64336e-020 	0.00318165 	1.99971e-019 	4273.03 	198.751 	0.00520967
-5.68357e-020 	0.00319845 	1.99971e-019 	4099.37 	197.024 	0.00504111
-5.84453e-020 	0.00321793 	1.99971e-019 	3429.18 	189.55 	0.00438377
-5.75982e-020 	0.00322905 	1.99971e-019 	3191.92 	186.743 	0.00414037
-5.67512e-020 	0.00323704 	1.99971e-019 	3006.65 	184.327 	0.00395221
-5.72464e-020 	0.00324926 	1.99971e-019 	2838.56 	182.271 	0.00377129
-5.67077e-020 	0.00325701 	1.99971e-019 	2709.1 	180.642 	0.0036337
-5.65382e-020 	0.00326282 	1.99971e-019 	2618.66 	179.287 	0.0035377
-5.75982e-020 	0.00327708 	1.99971e-019 	2414.81 	175.989 	0.00332507
-5.7413e-020 	0.00329315 	1.99971e-019 	2283.41 	173.909 	0.00318058
-5.736e-020 	0.00329351 	1.99971e-019 	2155.82 	172.197 	0.00303348
-5.736e-020 	0.00329535 	1.99971e-019 	2026.11 	169.747 	0.00289061
-5.80218e-020 	0.00331581 	1.99971e-019 	1990.93 	169.059 	0.00285322
-5.75982e-020 	0.00331817 	1.99971e-019 	1927.31 	168.215 	0.00277641
-5.71747e-020 	0.00332285 	1.99971e-019 	1788.75 	165.601 	0.00261601
-5.84453e-020 	0.00334525 	1.99971e-019 	1710.09 	164.253 	0.00252271
-5.92923e-020 	0.0033595 	1.99971e-019 	1653.56 	163.054 	0.00245633
-5.75982e-020 	0.00337086 	1.99971e-019 	1533.79 	160.541 	0.00231536
-5.84413e-020 	0.00338887 	1.99971e-019 	1438.89 	158.609 	0.00219791
-5.89322e-020 	0.00339724 	1.99971e-019 	1389.69 	157.515 	0.00213812
-5.97648e-020 	0.00340253 	1.99971e-019 	1367.68 	156.951 	0.00211128
-6.10354e-020 	0.0034245 	1.99971e-019 	1254.54 	154.189 	0.00197172
-6.01393e-020 	0.00344625 	1.99971e-019 	1166.22 	151.892 	0.00186025
-6.09864e-020 	0.0034527 	1.99971e-019 	1136.15 	151.097 	0.00182231
-6.00398e-020 	0.00346313 	1.99971e-019 	1102.79 	150.169 	0.00177919
-6.00044e-020 	0.00348099 	1.99971e-019 	1038.41 	148.344 	0.00169656
-6.02499e-020 	0.00348961 	1.99971e-019 	1010 	147.437 	0.0016598
-5.94029e-020 	0.00351079 	1.99971e-019 	936.946 	145.165 	0.00156416
-5.97e-020 	0.00352632 	1.99971e-019 	896.061 	143.79 	0.00151038
-5.84453e-020 	0.00354165 	1.99971e-019 	865.218 	142.726 	0.00146933
-5.92923e-020 	0.00355262 	1.99971e-019 	827.859 	141.373 	0.00141936
-5.60582e-020 	0.00357199 	1.99971e-019 	781.736 	139.844 	0.00135479
-5.41354e-020 	0.00358969 	1.99971e-019 	744.79 	138.485 	0.00130346
-5.32883e-020 	0.00360407 	1.99971e-019 	718.778 	137.531 	0.00126668
-5.37118e-020 	0.00362994 	1.99971e-019 	673.669 	135.763 	0.00120217
-5.42101e-020 	0.00364023 	1.99971e-019 	654.86 	135.034 	0.0011753
-5.49972e-020 	0.0036493 	1.99971e-019 	641.301 	134.452 	0.00115579
-5.58442e-020 	0.00367854 	1.99971e-019 	598.796 	132.618 	0.00109441
-5.65385e-020 	0.00371543 	1.99971e-019 	557.943 	130.69 	0.00103482
-5.6962e-020 	0.00371707 	1.99971e-019 	556.11 	130.603 	0.00103214
-5.65385e-020 	0.00371948 	1.99971e-019 	553.681 	130.48 	0.00102854
-5.85449e-020 	0.00375537 	1.99971e-019 	514.306 	128.522 	0.000969952
-5.64793e-020 	0.00377958 	1.99971e-019 	489.667 	127.265 	0.000932338
-5.73263e-020 	0.00379456 	1.99971e-019 	472.94 	126.408 	0.000906811
-5.81734e-020 	0.00382285 	1.99971e-019 	447.476 	124.98 	0.000867617
-5.92923e-020 	0.00383554 	1.99971e-019 	435.798 	124.327 	0.000849648
-5.88688e-020 	0.00384198 	1.99971e-019 	431.65 	124.078 	0.000843203
-5.76838e-020 	0.00387751 	1.99971e-019 	408.626 	122.673 	0.000807478
-5.59042e-020 	0.00391392 	1.99971e-019 	387.424 	121.3 	0.000774168
-5.40665e-020 	0.00392118 	1.99971e-019 	383.252 	121.029 	0.000767598
-5.40665e-020 	0.00393146 	1.99971e-019 	376.563 	120.594 	0.000756769
-5.58864e-020 	0.00396591 	1.99971e-019 	353.778 	119.086 	0.000720073
-5.66433e-020 	0.00399101 	1.99971e-019 	339.168 	118.075 	0.000696111
-5.59042e-020 	0.00401116 	1.99971e-019 	326.718 	117.199 	0.000675731
-5.33631e-020 	0.00403943 	1.99971e-019 	314.899 	116.279 	0.000656363
-5.2516e-020 	0.00405743 	1.99971e-019 	306.991 	115.652 	0.000643481
-4.99749e-020 	0.00407155 	1.99971e-019 	302.651 	115.34 	0.000636065
-4.91279e-020 	0.00410514 	1.99971e-019 	291.655 	114.536 	0.000617307
-4.74338e-020 	0.00414503 	1.99971e-019 	278.761 	113.518 	0.000595224
-4.74338e-020 	0.00415449 	1.99971e-019 	275.385 	113.249 	0.000589462
-4.76839e-020 	0.0041618 	1.99971e-019 	272.958 	113.049 	0.000585258
-4.40457e-020 	0.00420483 	1.99971e-019 	258.59 	111.847 	0.000560473
-4.56965e-020 	0.00424995 	1.99971e-019 	247.433 	110.83 	0.00054119
-4.48927e-020 	0.00425644 	1.99971e-019 	245.573 	110.655 	0.00053799
-4.48494e-020 	0.0042654 	1.99971e-019 	243.513 	110.463 	0.000534367
-4.48178e-020 	0.00431001 	1.99971e-019 	231.177 	109.268 	0.00051285
-4.40457e-020 	0.00434086 	1.99971e-019 	222.461 	108.441 	0.000497176
-4.24622e-020 	0.00436392 	1.99971e-019 	214.95 	107.707 	0.000483752
-4.41563e-020 	0.00439882 	1.99971e-019 	206.81 	106.806 	0.000469283
-4.33011e-020 	0.00441993 	1.99971e-019 	201.519 	106.206 	0.000459942
-4.26299e-020 	0.00443467 	1.99971e-019 	198.966 	105.916 	0.000455327
-4.17829e-020 	0.004477 	1.99971e-019 	190.151 	104.901 	0.000439427
-4.20467e-020 	0.00452949 	1.99971e-019 	182.199 	104.018 	0.000424626
-4.24703e-020 	0.00453468 	1.99971e-019 	181.343 	103.919 	0.000423037
-4.15046e-020 	0.00454323 	1.99971e-019 	179.959 	103.756 	0.000420435
-4.06576e-020 	0.00459466 	1.99971e-019 	170.299 	102.609 	0.000402317
-3.89635e-020 	0.00462431 	1.99971e-019 	165.245 	102.012 	0.000392617
-3.72694e-020 	0.00465686 	1.99971e-019 	159.548 	101.337 	0.000381668
-3.61386e-020 	0.00471098 	1.99971e-019 	152.598 	100.452 	0.000368245
-3.64224e-020 	0.0047204 	1.99971e-019 	151.318 	100.287 	0.000365779
-3.64224e-020 	0.00472651 	1.99971e-019 	150.597 	100.192 	0.000364366
-3.5612e-020 	0.00478595 	1.99971e-019 	142.604 	99.118 	0.000348772
-3.46395e-020 	0.00483473 	1.99971e-019 	136.763 	98.2757 	0.000337321
-3.46395e-020 	0.00485284 	1.99971e-019 	134.555 	97.9536 	0.000333001
-3.63336e-020 	0.00487836 	1.99971e-019 	132.048 	97.5671 	0.00032806
-3.38813e-020 	0.00491845 	1.99971e-019 	127.73 	96.8865 	0.000319604
-3.38813e-020 	0.00494948 	1.99971e-019 	125.364 	96.5364 	0.000314805
-3.5527e-020 	0.00498709 	1.99971e-019 	122.345 	96.0727 	0.00030873
-3.72694e-020 	0.00504715 	1.99971e-019 	117.299 	95.294 	0.000298388
-3.71967e-020 	0.0050579 	1.99971e-019 	116.373 	95.151 	0.00029649
-3.65448e-020 	0.00506454 	1.99971e-019 	115.77 	95.0597 	0.000295226
-3.48507e-020 	0.0051293 	1.99971e-019 	109.391 	94.0879 	0.00028185
-3.21873e-020 	0.00518409 	1.99971e-019 	105.043 	93.3464 	0.000272781
-2.97315e-020 	0.00520192 	1.99971e-019 	103.655 	93.1039 	0.000269899
-3.14256e-020 	0.00522761 	1.99971e-019 	102.035 	92.7685 	0.000266617
-3.15911e-020 	0.00527549 	1.99971e-019 	98.8466 	92.1053 	0.000260173
-2.68486e-020 	0.00530987 	1.99971e-019 	97.0664 	91.7434 	0.000256482
-2.85427e-020 	0.00535006 	1.99971e-019 	94.9771 	91.3095 	0.000252175
-2.26135e-020 	0.00540823 	1.99971e-019 	92.2228 	90.7705 	0.000246301
-2.29942e-020 	0.00542646 	1.99971e-019 	91.3643 	90.6015 	0.000244474
-2.36675e-020 	0.00544013 	1.99971e-019 	90.5722 	90.4588 	0.000242723
-2.28204e-020 	0.00550317 	1.99971e-019 	86.919 	89.8007 	0.000234649
-2.68815e-020 	0.0055733 	1.99971e-019 	82.8618 	89.0574 	0.000225562
-2.6458e-020 	0.00557849 	1.99971e-019 	82.589 	89.0055 	0.000224956
-2.56109e-020 	0.00558663 	1.99971e-019 	82.2424 	88.9268 	0.000224205
-2.29348e-020 	0.00566061 	1.99971e-019 	79.1938 	88.2259 	0.000217615
-2.4825e-020 	0.00570937 	1.99971e-019 	77.2068 	87.7399 	0.000213313
-2.99072e-020 	0.00574368 	1.99971e-019 	75.8276 	87.3969 	0.000210341
-2.65191e-020 	0.0058034 	1.99971e-019 	73.7214 	86.8971 	0.000205664
-2.62239e-020 	0.0058296 	1.99971e-019 	72.7986 	86.6661 	0.000203644
-2.65356e-020 	0.00584307 	1.99971e-019 	72.3099 	86.5501 	0.000202538
-2.06064e-020 	0.005917 	1.99971e-019 	69.8497 	85.9635 	0.000196987
-1.65613e-020 	0.00597959 	1.99971e-019 	68.0685 	85.5522 	0.000192881
-1.99495e-020 	0.00600655 	1.99971e-019 	67.236 	85.3536 	0.000190976
-1.82554e-020 	0.00604936 	1.99971e-019 	66.1563 	85.0997 	0.000188461
-1.69407e-020 	0.00609805 	1.99971e-019 	64.8572 	84.7799 	0.000185463
-2.20229e-020 	0.00612925 	1.99971e-019 	63.8409 	84.5075 	0.000183123
-2.24076e-020 	0.00618859 	1.99971e-019 	61.8729 	83.9818 	0.000178603
-2.49875e-020 	0.00627551 	1.99971e-019 	59.5539 	83.3217 	0.000173276
-2.44732e-020 	0.0062806 	1.99971e-019 	59.4133 	83.281 	0.000172954
-2.42439e-020 	0.00628412 	1.99971e-019 	59.3298 	83.2584 	0.000172755
-2.17028e-020 	0.00637446 	1.99971e-019 	57.1516 	82.6403 	0.000167659
-1.87134e-020 	0.00644402 	1.99971e-019 	55.7836 	82.2493 	0.000164418
-1.52466e-020 	0.00646886 	1.99971e-019 	55.2435 	82.09 	0.000163151
-1.18585e-020 	0.00650382 	1.99971e-019 	54.7017 	81.9364 	0.000161852
-1.44468e-020 	0.00656419 	1.99971e-019 	53.6579 	81.6258 	0.000159371
-8.90892e-021 	0.00660535 	1.99971e-019 	52.9849 	81.4157 	0.000157767
-5.52079e-021 	0.00666277 	1.99971e-019 	51.8758 	81.0647 	0.00015514
-2.97969e-021 	0.00674917 	1.99971e-019 	50.1586 	80.5224 	0.00015101
-5.34007e-021 	0.00676258 	1.99971e-019 	49.8759 	80.432 	0.000150332
-4.23516e-021 	0.00677178 	1.99971e-019 	49.6912 	80.3737 	0.000149879
-7.84315e-021 	0.00686365 	1.99971e-019 	47.8795 	79.7963 	0.000145464
-5.71102e-021 	0.00694537 	1.99971e-019 	46.7982 	79.4874 	0.000142731
-6.77626e-021 	0.00696588 	1.99971e-019 	46.453 	79.3849 	0.000141866
-8.47033e-021 	0.00699931 	1.99971e-019 	46.0362 	79.2844 	0.00014077
-1.01644e-020 	0.00706998 	1.99971e-019 	44.9906 	78.9932 	0.00013808
-9.7582e-021 	0.0071193 	1.99971e-019 	44.3136 	78.8189 	0.000136295
-3.38813e-021 	0.00717818 	1.99971e-019 	43.361 	78.5399 	0.000133847
-8.06413e-021 	0.00724663 	1.99971e-019 	42.3607 	78.1642 	0.00013138
-1.35525e-020 	0.00729307 	1.99971e-019 	41.6238 	77.8793 	0.000129571
-1.69407e-020 	0.00732838 	1.99971e-019 	41.2118 	77.6943 	0.000128588
-1.35525e-020 	0.00740118 	1.99971e-019 	40.0551 	77.183 	0.000125815
-1.48231e-020 	0.00750354 	1.99971e-019 	39.1644 	76.7878 	0.000123655
-1.45054e-020 	0.00750485 	1.99971e-019 	39.1495 	76.7814 	0.000123618
-1.46113e-020 	0.00750616 	1.99971e-019 	39.1341 	76.7754 	0.000123579
-2.03288e-020 	0.00761408 	1.99971e-019 	37.5543 	76.1522 	0.000119553
-2.38409e-020 	0.00770264 	1.99971e-019 	36.5867 	75.7706 	0.000117061
-2.20229e-020 	0.0077274 	1.99971e-019 	36.262 	75.6396 	0.000116227
-1.52466e-020 	0.00776217 	1.99971e-019 	36.0035 	75.5533 	0.000115528
-1.54025e-020 	0.00784226 	1.99971e-019 	35.1082 	75.2328 	0.000113137
-1.20251e-020 	0.00789847 	1.99971e-019 	34.6072 	75.0761 	0.00011175
-1.88014e-020 	0.00795943 	1.99971e-019 	33.8705 	74.8328 	0.000109731
-1.01644e-020 	0.00805917 	1.99971e-019 	33.0495 	74.5675 	0.000107452
-8.47033e-021 	0.0080778 	1.99971e-019 	32.8562 	74.4998 	0.000106923
-9.31736e-021 	0.00808841 	1.99971e-019 	32.755 	74.4652 	0.000106641
-1.35525e-020 	0.00819766 	1.99971e-019 	31.6086 	74.0511 	0.000103484
-1.35525e-020 	0.00828765 	1.99971e-019 	30.9283 	73.7947 	0.000101607
-1.35525e-020 	0.0083206 	1.99971e-019 	30.6155 	73.6776 	0.000100743
-1.3972e-020 	0.00836948 	1.99971e-019 	30.206 	73.51 	9.96182e-005
-1.69407e-020 	0.00844587 	1.99971e-019 	29.5036 	73.2102 	9.77026e-005
-2.03288e-020 	0.00850044 	1.99971e-019 	29.075 	73.0174 	9.65329e-005
-3.11243e-020 	0.0085718 	1.99971e-019 	28.5216 	72.754 	9.50441e-005
-2.5411e-020 	0.00867336 	1.99971e-019 	27.9435 	72.4739 	9.34777e-005
-2.40831e-020 	0.00869875 	1.99971e-019 	27.7923 	72.4025 	9.30647e-005
-2.3881e-020 	0.00871626 	1.99971e-019 	27.7088 	72.3598 	9.28383e-005
-3.23514e-020 	0.00882731 	1.99971e-019 	27.1265 	72.0692 	9.12552e-005
-2.92701e-020 	0.0089358 	1.99971e-019 	26.6661 	71.8409 	8.9991e-005
-3.04932e-020 	0.00895736 	1.99971e-019 	26.5722 	71.7942 	8.97339e-005
-3.72694e-020 	0.00898846 	1.99971e-019 	26.4525 	71.7342 	8.9404e-005
-4.00383e-020 	0.00908923 	1.99971e-019 	26.0466 	71.5304 	8.82833e-005
-4.22963e-020 	0.00915905 	1.99971e-019 	25.7329 	71.3585 	8.74266e-005
-3.89081e-020 	0.00922209 	1.99971e-019 	25.5174 	71.2444 	8.68345e-005
-4.73785e-020 	0.00931334 	1.99971e-019 	25.1479 	71.0615 	8.5799e-005
-4.7806e-020 	0.00935617 	1.99971e-019 	25.0307 	71.0027 	8.54708e-005
-4.7042e-020 	0.00938538 	1.99971e-019 	24.9374 	70.9553 	8.52085e-005