0 	0 	0 	0 	0 	0
-3.34597e-021 	8.49561e-005 	1.99971e-019 	0.0212015 	0.724486 	0
1.85288e-021 	0.000165142 	1.99971e-019 	0.0975281 	1.54993 	0
1.79995e-021 	0.000165952 	1.99971e-019 	0.0991466 	1.55739 	0
1.58819e-021 	0.000167208 	1.99971e-019 	0.10265 	1.57359 	0
3.38813e-021 	0.000246429 	1.99971e-019 	0.249418 	2.52589 	0
-3.38813e-021 	0.000286935 	1.99971e-019 	0.299871 	3.31439 	0
-4.95617e-021 	0.000324576 	1.99971e-019 	0.436007 	4.05384 	0
-8.09903e-021 	0.000386443 	1.99971e-019 	0.623505 	5.92857 	0
-8.94607e-021 	0.00039981 	1.99971e-019 	0.641635 	6.32542 	0
-7.6233e-021 	0.000409413 	1.99971e-019 	0.633483 	6.72081 	0
-3.38813e-021 	0.000474922 	1.99971e-019 	0.802134 	9.50554 	0
-1.29248e-020 	0.000525915 	1.99971e-019 	0.818538 	12.2754 	0
-1.35525e-020 	0.000545077 	1.99971e-019 	0.842723 	13.3246 	0
-1.39213e-020 	0.000577816 	1.99971e-019 	0.820114 	15.1224 	0
-1.52466e-020 	0.000613877 	1.99971e-019 	0.786722 	17.1104 	0
-1.69407e-020 	0.000636855 	1.99971e-019 	0.763215 	18.1965 	0
-2.03288e-020 	0.000680922 	1.99971e-019 	0.629737 	20.3133 	0
-2.11758e-020 	0.000744184 	1.99971e-019 	0.646414 	22.8083 	0
-2.15993e-020 	0.000747971 	1.99971e-019 	0.624535 	22.965 	0
-2.07523e-020 	0.000754798 	1.99971e-019 	0.608419 	23.2359 	0
-2.37169e-020 	0.000812401 	1.99971e-019 	0.605957 	25.5722 	0
-2.44515e-020 	0.000841573 	1.99971e-019 	0.703004 	26.9067 	0
-2.82213e-020 	0.000874088 	1.99971e-019 	0.580023 	28.4693 	0
-2.89624e-020 	0.0009338 	1.99971e-019 	0.566726 	31.6672 	0
-2.89326e-020 	0.000934775 	1.99971e-019 	0.559038 	31.7232 	0
-2.8905e-020 	0.000936905 	1.99971e-019 	0.551104 	31.8564 	0
-2.82237e-020 	0.000994329 	1.99971e-019 	0.463245 	35.5661 	0
-2.99177e-020 	0.00102109 	1.99971e-019 	0.526515 	37.4365 	0
-3.28103e-020 	0.00105169 	1.99971e-019 	0.366379 	39.6972 	0
-3.59866e-020 	0.00110517 	1.99971e-019 	0.319475 	43.8149 	0
-3.58085e-020 	0.00110764 	1.99971e-019 	0.300581 	44.0172 	0
-3.62107e-020 	0.00111255 	1.99971e-019 	0.284372 	44.4335 	0
-3.53024e-020 	0.00116181 	1.99971e-019 	0.230425 	48.7553 	0
-3.53024e-020 	0.00118635 	1.99971e-019 	0.276423 	50.982 	0
-4.04544e-020 	0.00121509 	1.99971e-019 	0.141505 	53.6972 	0
-4.55366e-020 	0.00126354 	1.99971e-019 	0.13887 	58.4316 	0
-4.5688e-020 	0.00126595 	1.99971e-019 	0.13117 	58.6806 	0
-4.61633e-020 	0.00127065 	1.99971e-019 	0.11568 	59.1581 	0
-4.40484e-020 	0.00131575 	1.99971e-019 	0.0434513 	63.9156 	0
-4.57425e-020 	0.00133853 	1.99971e-019 	0.0329042 	66.3647 	0
-4.60365e-020 	0.00136471 	1.99971e-019 	-0.0983342 	69.222 	0
-4.85776e-020 	0.00141004 	1.99971e-019 	-0.0887167 	74.3604 	0
-4.87829e-020 	0.00141176 	1.99971e-019 	-0.0986353 	74.5711 	0
-4.87044e-020 	0.00141533 	1.99971e-019 	-0.10008 	74.9824 	0
-4.78399e-020 	0.00145799 	1.99971e-019 	-0.136146 	80.0567 	0
-4.78399e-020 	0.00147866 	1.99971e-019 	-0.138789 	82.5162 	0
-4.81103e-020 	0.00150232 	1.99971e-019 	-0.207049 	85.3946 	0
-5.10749e-020 	0.00154483 	1.99971e-019 	-0.194766 	90.5648 	0
-5.12294e-020 	0.00154543 	1.99971e-019 	-0.19636 	90.639 	0
-5.12455e-020 	0.00154657 	1.99971e-019 	-0.197563 	90.7822 	0
-5.27756e-020 	0.00158764 	1.99971e-019 	-0.207926 	96.0272 	0
-5.36226e-020 	0.00160878 	1.99971e-019 	-0.188007 	98.7424 	0
-5.51794e-020 	0.00162912 	1.99971e-019 	-0.25588 	101.398 	0
-5.80218e-020 	0.00166732 	1.99971e-019 	-0.228432 	106.466 	0
-5.80218e-020 	0.00166886 	1.99971e-019 	-0.227284 	106.672 	0
-5.79159e-020 	0.00166968 	1.99971e-019 	-0.224797 	106.782 	0
-5.61955e-020 	0.00170776 	1.99971e-019 	-0.209243 	112.019 	0
-5.36544e-020 	0.00172866 	1.99971e-019 	-0.160186 	114.909 	0
-5.20092e-020 	0.00174596 	1.99971e-019 	-0.190618 	117.32 	0
-5.20925e-020 	0.0017779 	1.99971e-019 	-0.118121 	121.875 	0
-5.2516e-020 	0.00178256 	1.99971e-019 	-0.107567 	122.543 	0
-5.2516e-020 	0.00178505 	1.99971e-019 	-0.0986816 	122.904 	0
-5.26435e-020 	0.00181855 	1.99971e-019 	-0.0882029 	127.826 	0
-5.43376e-020 	0.00184057 	1.99971e-019 	-0.0182453 	131.128 	0
-5.24645e-020 	0.00185358 	1.99971e-019 	-0.0181674 	133.088 	0
-5.33631e-020 	0.0018797 	1.99971e-019 	-0.0399636 	137.134 	0
-5.44743e-020 	0.00188773 	1.99971e-019 	-0.0311795 	138.38 	0
-5.53214e-020 	0.00189168 	1.99971e-019 	-0.015316 	139.01 	0
-5.4663e-020 	0.00192066 	1.99971e-019 	-0.0231748 	143.684 	0
-5.551e-020 	0.00194082 	1.99971e-019 	0.0115418 	147.013 	0
-5.56148e-020 	0.00195274 	1.99971e-019 	-0.0177581 	148.993 	0
-5.2516e-020 	0.00197421 	1.99971e-019 	-0.00672632 	152.661 	0
-5.25717e-020 	0.00198403 	1.99971e-019 	0.010485 	154.339 	0
-5.17246e-020 	0.00198941 	1.99971e-019 	0.030005 	155.28 	0
-5.1242e-020 	0.00201476 	1.99971e-019 	-0.0272692 	159.727 	0
-5.2089e-020 	0.00203493 	1.99971e-019 	-0.0116702 	163.386 	0
-5.16805e-020 	0.00204453 	1.99971e-019 	-0.0462544 	165.139 	0
-5.20925e-020 	0.00206227 	1.99971e-019 	-0.0561589 	168.513 	0
-5.1669e-020 	0.00207317 	1.99971e-019 	-0.0428146 	170.58 	0
-5.1669e-020 	0.00207923 	1.99971e-019 	-0.01699 	171.769 	0
-5.27189e-020 	0.00210118 	1.99971e-019 	-0.0371482 	176.064 	0
-5.14483e-020 	0.00212297 	1.99971e-019 	-1.51031 	178.201 	0
-5.17263e-020 	0.00212849 	1.99971e-019 	-0.0365871 	181.599 	0
-5.1669e-020 	0.00213857 	1.99971e-019 	0.0223761 	183.452 	0
-5.11911e-020 	0.00215502 	1.99971e-019 	0.527823 	187.079 	0
-5.0344e-020 	0.00216369 	1.99971e-019 	1.13317 	190.747 	0
-5.16856e-020 	0.00218091 	1.99971e-019 	0.50963 	192.753 	0
-5.0415e-020 	0.00220231 	1.99971e-019 	-1.89586 	195.125 	0
-5.01013e-020 	0.00220628 	1.99971e-019 	-3.14946 	199.155 	0
-4.99749e-020 	0.0022138 	1.99971e-019 	-0.155705 	200.552 	0
-5.02753e-020 	0.00223081 	1.99971e-019 	0.377411 	204.306 	0
-4.94282e-020 	0.00224032 	1.99971e-019 	-0.272886 	206.394 	0
-5.17846e-020 	0.00225455 	1.99971e-019 	-1.63212 	210.54 	0
-5.24199e-020 	0.00227622 	1.99971e-019 	-1.07134 	214.442 	0
-5.20641e-020 	0.00227809 	1.99971e-019 	-1.74116 	216.546 	0
-5.18808e-020 	0.00228155 	1.99971e-019 	-1.2411 	220.504 	0
-5.2516e-020 	0.00230055 	1.99971e-019 	-0.0103709 	222.288 	0
-5.2516e-020 	0.00231126 	1.99971e-019 	0.53782 	226.282 	0
-5.252e-020 	0.00232249 	1.99971e-019 	-2.19194 	228.818 	0
-5.21984e-020 	0.00234187 	1.99971e-019 	1.06012 	230.324 	0
-5.19136e-020 	0.00234404 	1.99971e-019 	1.63295 	234.358 	0
-5.21254e-020 	0.00234526 	1.99971e-019 	2.30544 	238.451 	0
-5.2235e-020 	0.00236485 	1.99971e-019 	1.52908 	240.7 	0
-5.35056e-020 	0.00237739 	1.99971e-019 	-1.27011 	243.388 	0
-5.40496e-020 	0.00238521 	1.99971e-019 	-2.84101 	247.951 	0
-5.46336e-020 	0.00240097 	1.99971e-019 	0.89505 	249.427 	0
-5.43193e-020 	0.00240496 	1.99971e-019 	1.59005 	253.603 	0
-5.43193e-020 	0.00240707 	1.99971e-019 	2.36773 	257.938 	0
-5.2116e-020 	0.0024257 	1.99971e-019 	1.7318 	260.33 	0
-5.33866e-020 	0.00243488 	1.99971e-019 	0.397498 	265.171 	0
-5.31997e-020 	0.00244358 	1.99971e-019 	-2.35722 	267.929 	0
-5.20925e-020 	0.00245791 	1.99971e-019 	0.262589 	271.934 	0
-5.17955e-020 	0.00246134 	1.99971e-019 	1.63235 	273.861 	0
-5.15837e-020 	0.0024634 	1.99971e-019 	2.31115 	278.328 	0
-5.17495e-020 	0.00247897 	1.99971e-019 	1.52848 	280.739 	0
-5.17495e-020 	0.00249024 	1.99971e-019 	-1.40721 	283.632 	0
-5.21023e-020 	0.00249621 	1.99971e-019 	-3.07803 	288.537 	0
-5.10337e-020 	0.00250679 	1.99971e-019 	0.676609 	290.334 	0
-5.11683e-020 	0.00251298 	1.99971e-019 	1.38273 	294.962 	0
-5.07448e-020 	0.00251644 	1.99971e-019 	2.20161 	299.71 	0
-5.15314e-020 	0.00252957 	1.99971e-019 	1.3588 	302.321 	0
-5.11079e-020 	0.00254166 	1.99971e-019 	-1.86237 	305.404 	0
-5.22259e-020 	0.00254543 	1.99971e-019 	-3.36238 	310.661 	0
-5.1669e-020 	0.00255292 	1.99971e-019 	0.481875 	312.379 	0
-5.14908e-020 	0.00256094 	1.99971e-019 	1.18515 	317.261 	0
-5.10673e-020 	0.00256523 	1.99971e-019 	0.383354 	319.995 	0
-5.09501e-020 	0.00257596 	1.99971e-019 	-1.13915 	325.33 	0
-5.0822e-020 	0.00258717 	1.99971e-019 	-0.374057 	330.42 	0
-5.07306e-020 	0.00259056 	1.99971e-019 	-1.2167 	333.062 	0
-5.01867e-020 	0.00259682 	1.99971e-019 	-0.577571 	338.303 	0
-5.05917e-020 	0.00260497 	1.99971e-019 	1.0439 	340.617 	0
-5.10152e-020 	0.00260958 	1.99971e-019 	1.76775 	345.863 	0
-5.16374e-020 	0.00261874 	1.99971e-019 	0.82012 	348.677 	0
-5.14257e-020 	0.00263091 	1.99971e-019 	-2.68306 	351.978 	0
-5.16184e-020 	0.00263224 	1.99971e-019 	-4.74894 	357.664 	0
-5.15631e-020 	0.00263447 	1.99971e-019 	-0.449625 	359.824 	0
-5.15941e-020 	0.00264536 	1.99971e-019 	0.245532 	365.188 	0
-5.11706e-020 	0.00265172 	1.99971e-019 	-0.697217 	368.175 	0
-5.18329e-020 	0.00265813 	1.99971e-019 	-2.71779 	374.021 	0
-5.16161e-020 	0.00266994 	1.99971e-019 	1.77782 	376.239 	0
-5.16161e-020 	0.00267076 	1.99971e-019 	2.56266 	381.78 	0
-5.16161e-020 	0.00267123 	1.99971e-019 	3.31782 	387.503 	0
-5.1669e-020 	0.00268287 	1.99971e-019 	-0.541696 	391.062 	0
-5.20925e-020 	0.00269036 	1.99971e-019 	0.208506 	396.898 	0
-5.22175e-020 	0.00269466 	1.99971e-019 	-3.67283 	400.488 	0
-5.2516e-020 	0.0027024 	1.99971e-019 	0.995814 	402.784 	0
-5.26373e-020 	0.00270627 	1.99971e-019 	1.81756 	408.636 	0
-5.26373e-020 	0.00270844 	1.99971e-019 	2.67763 	414.637 	0
-5.13663e-020 	0.00271745 	1.99971e-019 	1.67449 	417.865 	0
-5.1578e-020 	0.00272578 	1.99971e-019 	-2.20925 	421.681 	0
-5.15532e-020 	0.00272834 	1.99971e-019 	-4.42889 	428.179 	0
-5.14573e-020 	0.00273244 	1.99971e-019 	-0.906 	433.979 	0
-5.12455e-020 	0.00273891 	1.99971e-019 	0.95259 	436.78 	0
-5.18808e-020 	0.00274291 	1.99971e-019 	1.67602 	443.131 	0
-5.23416e-020 	0.00274927 	1.99971e-019 	-2.60847 	447.063 	0
-5.24739e-020 	0.00275926 	1.99971e-019 	-3.76444 	450.588 	0
-5.29206e-020 	0.00276931 	1.99971e-019 	-0.413439 	466.797 	0
-5.29396e-020 	0.00277494 	1.99971e-019 	-1.52866 	470.489 	0
-5.2516e-020 	0.00277899 	1.99971e-019 	-0.508891 	477.26 	0
-5.26219e-020 	0.00278759 	1.99971e-019 	1.84049 	480.266 	0
-5.25672e-020 	0.00278837 	1.99971e-019 	3.08903 	486.934 	0
-5.25143e-020 	0.00278873 	1.99971e-019 	4.16958 	493.782 	0
-5.2268e-020 	0.00279736 	1.99971e-019 	3.14512 	497.492 	0
-5.24797e-020 	0.00280212 	1.99971e-019 	-1.17306 	501.998 	0
-5.32308e-020 	0.00280615 	1.99971e-019 	-3.58104 	509.549 	0
-5.35748e-020 	0.00281288 	1.99971e-019 	1.69314 	512.33 	0
-5.3305e-020 	0.00281481 	1.99971e-019 	2.66031 	519.481 	0
-5.35168e-020 	0.00281594 	1.99971e-019 	1.4306 	523.527 	0
-5.29183e-020 	0.00282325 	1.99971e-019 	-1.00392 	531.484 	0
-5.27065e-020 	0.00282909 	1.99971e-019 	-0.0893193 	538.991 	0
-5.27788e-020 	0.00283153 	1.99971e-019 	-1.28677 	543.022 	0
-5.28337e-020 	0.00283574 	1.99971e-019 	-0.456002 	550.768 	0
-5.27278e-020 	0.00283947 	1.99971e-019 	1.68343 	554.253 	0
-5.29396e-020 	0.00284177 	1.99971e-019 	2.56481 	562.204 	0
-5.32078e-020 	0.0028473 	1.99971e-019 	-2.31928 	567.143 	0
-5.35784e-020 	0.00285426 	1.99971e-019 	-3.61394 	571.558 	0
-5.36265e-020 	0.00285497 	1.99971e-019 	-2.87669 	579.863 	0
-5.36807e-020 	0.00285619 	1.99971e-019 	-0.36739 	583.635 	0
-5.32793e-020 	0.00286248 	1.99971e-019 	0.818077 	591.865 	0
-5.31513e-020 	0.0028657 	1.99971e-019 	2.02524 	600.021 	0
-5.2996e-020 	0.00286952 	1.99971e-019 	-1.75068 	604.354 	0
-5.30454e-020 	0.00287533 	1.99971e-019 	0.839684 	612.888 	0
-5.32226e-020 	0.00287656 	1.99971e-019 	3.10991 	616.8 	0
-5.31167e-020 	0.0028774 	1.99971e-019 	4.59402 	625.778 	0
-5.26813e-020 	0.00288383 	1.99971e-019 	3.74643 	630.822 	0
-5.28931e-020 	0.00288722 	1.99971e-019 	-1.16567 	636.704 	0
-5.33804e-020 	0.00289058 	1.99971e-019 	-3.90086 	646.277 	0
-5.3416e-020 	0.00289598 	1.99971e-019 	2.08029 	649.946 	0
-5.33593e-020 	0.00289724 	1.99971e-019 	3.03051 	659.29 	0
-5.33593e-020 	0.00289802 	1.99971e-019 	1.67837 	664.548 	0
-5.31311e-020 	0.00290378 	1.99971e-019 	2.65996 	674.186 	0
-5.37664e-020 	0.00290827 	1.99971e-019 	-0.0938864 	684.982 	0
-5.35302e-020 	0.00291019 	1.99971e-019 	-1.48668 	690.313 	0
-5.37866e-020 	0.00291346 	1.99971e-019 	-0.565361 	700.59 	0
-5.35748e-020 	0.00291639 	1.99971e-019 	1.86615 	705.15 	0
-5.39984e-020 	0.00291816 	1.99971e-019 	2.75562 	715.692 	0
-5.39984e-020 	0.00292249 	1.99971e-019 	-2.83738 	722.122 	0
-5.36807e-020 	0.0029281 	1.99971e-019 	-1.91234 	733.234 	0
-5.37337e-020 	0.00292857 	1.99971e-019 	-7.65315 	739.728 	0
-5.37982e-020 	0.00292934 	1.99971e-019 	-2.59557 	750.609 	0
-5.37866e-020 	0.00293455 	1.99971e-019 	3.82009 	754.904 	0
-5.35748e-020 	0.00293792 	1.99971e-019 	0.685983 	767.622 	0
-5.31513e-020 	0.00294038 	1.99971e-019 	-4.9731 	774.748 	0
-5.31513e-020 	0.00294413 	1.99971e-019 	1.49788 	779.623 	0
-5.29396e-020 	0.00294614 	1.99971e-019 	6.48857 	790.303 	0
-5.30454e-020 	0.00294737 	1.99971e-019 	3.36828 	803.887 	0
-5.29396e-020 	0.00295171 	1.99971e-019 	-2.55711 	811.906 	0
-5.31513e-020 	0.00295648 	1.99971e-019 	-4.22933 	818.965 	0
-5.32572e-020 	0.00295719 	1.99971e-019 	-3.36661 	831.848 	0
-5.32091e-020 	0.00295827 	1.99971e-019 	-2.48502 	845.253 	0
-5.3368e-020 	0.00296264 	1.99971e-019 	0.152572 	851.229 	0
-5.3368e-020 	0.0029654 	1.99971e-019 	1.09968 	865.22 	0
-5.37014e-020 	0.002968 	1.99971e-019 	-4.77344 	874.002 	0
-5.39984e-020 	0.00297217 	1.99971e-019 	0.386579 	887.688 	0
-5.39734e-020 	0.00297356 	1.99971e-019 	2.88918 	894.64 	0
-5.40793e-020 	0.00297455 	1.99971e-019 	1.10522 	903.39 	0
-5.41659e-020 	0.00297924 	1.99971e-019 	1.78592 	919.533 	0
-5.39012e-020 	0.0029846 	1.99971e-019 	-4.23571 	929.638 	0
-5.39454e-020 	0.00298513 	1.99971e-019 	-3.96055 	946.836 	0
-5.39454e-020 	0.00298558 	1.99971e-019 	-1.95105 	955.754 	0
-5.42101e-020 	0.00299107 	1.99971e-019 	1.73836 	973.712 	0
-5.45562e-020 	0.00299636 	1.99971e-019 	1.78626 	992.759 	0
-5.45297e-020 	0.00299676 	1.99971e-019 	3.74615 	1001.76 	0
-5.42483e-020 	0.00300259 	1.99971e-019 	-0.817742 	1033.4 	0
-5.40365e-020 	0.003007 	1.99971e-019 	-0.727412 	1056.46 	0
-5.42552e-020 	0.00300912 	1.99971e-019 	-1.59276 	1068.09 	0
-5.36592e-020 	0.00301185 	1.99971e-019 	-1.25324 	1096.24 	0
-5.34475e-020 	0.00301655 	1.99971e-019 	-0.468464 	1108.59 	0
-5.32357e-020 	0.00302036 	1.99971e-019 	-1.08949 	1135.23 	0
-5.30001e-020 	0.00302411 	1.99971e-019 	-0.714372 	1151.31 	0
-5.29762e-020 	0.00302764 	1.99971e-019 	-1.27486 	1173.65 	0
-5.25527e-020 	0.0030309 	1.99971e-019 	-2.33146 	1187.25 	0
-5.2288e-020 	0.00303714 	1.99971e-019 	-1.95417 	1218.68 	0
-5.23151e-020 	0.00303837 	1.99971e-019 	-0.852804 	1224.87 	0
-5.23572e-020 	0.00303881 	1.99971e-019 	1.61462 	1241.76 	0
-5.24631e-020 	0.00304009 	1.99971e-019 	-0.132525 	1254.33 	0
-5.2516e-020 	0.00304859 	1.99971e-019 	-7.43551 	1288.88 	0
-5.30082e-020 	0.00305358 	1.99971e-019 	-4.08669 	1325.38 	0
-5.2911e-020 	0.00305788 	1.99971e-019 	9.55666 	1346.77 	0
-5.29396e-020 	0.00306216 	1.99971e-019 	2.83255 	1379.53 	0
-5.29396e-020 	0.00306755 	1.99971e-019 	-17.5828 	1395.18 	0
-5.27849e-020 	0.00307195 	1.99971e-019 	-1.0061 	1416.69 	0
-5.37866e-020 	0.0030783 	1.99971e-019 	-1.24713 	1455.11 	0
-5.30454e-020 	0.00308755 	1.99971e-019 	-12.1198 	1472.74 	0
-5.30454e-020 	0.00308954 	1.99971e-019 	-43.1986 	1512.81 	0
-5.30454e-020 	0.00309082 	1.99971e-019 	-11.9946 	1530.9 	0
-5.29396e-020 	0.0031015 	1.99971e-019 	9.22207 	1570.48 	0
-5.29396e-020 	0.0031101 	1.99971e-019 	1.46569 	1605.58 	0
-5.33631e-020 	0.00311354 	1.99971e-019 	15.0595 	1625.2 	0
-5.38577e-020 	0.00311859 	1.99971e-019 	12.5216 	1659.91 	0
-5.54807e-020 	0.00312652 	1.99971e-019 	-41.0889 	1672.87 	0
-5.51282e-020 	0.00313245 	1.99971e-019 	5.4631 	1693.31 	0
-5.49951e-020 	0.00314016 	1.99971e-019 	2.86098 	1725.31 	0
-5.5621e-020 	0.00315155 	1.99971e-019 	-19.9886 	1740.02 	0
-5.59042e-020 	0.00315462 	1.99971e-019 	-28.4488 	1771.57 	0
-5.59042e-020 	0.00315668 	1.99971e-019 	-13.316 	1789.07 	0
-5.50571e-020 	0.00316955 	1.99971e-019 	-20.8289 	1821.34 	0
-5.64336e-020 	0.00318075 	1.99971e-019 	44.8176 	1842.48 	0
-5.64336e-020 	0.00318165 	1.99971e-019 	79.3777 	1879.97 	0
-5.68357e-020 	0.00319845 	1.99971e-019 	81.0595 	1892.68 	0
-5.84453e-020 	0.00321793 	1.99971e-019 	-3.52299 	1939.95 	0
-5.75982e-020 	0.00322905 	1.99971e-019 	10.0077 	1964.93 	0
-5.67512e-020 	0.00323704 	1.99971e-019 	-67.5356 	1986.57 	0
-5.72464e-020 	0.00324926 	1.99971e-019 	0.912829 	2005.82 	0
-5.67077e-020 	0.00325701 	1.99971e-019 	33.1036 	2016.42 	0
-5.65382e-020 	0.00326282 	1.99971e-019 	9.94312 	2030.05 	0
-5.75982e-020 	0.00327708 	1.99971e-019 	-32.2707 	2060.92 	0
-5.7413e-020 	0.00329315 	1.99971e-019 	29.4891 	2072.33 	0
-5.736e-020 	0.00329351 	1.99971e-019 	102.086 	2078.35 	0
-5.736e-020 	0.00329535 	1.99971e-019 	18.6364 	2102.78 	0
-5.80218e-020 	0.00331581 	1.99971e-019 	-28.8104 	2107.02 	0
-5.75982e-020 	0.00331817 	1.99971e-019 	8.7463 	2113.02 	0
-5.71747e-020 	0.00332285 	1.99971e-019 	-25.5817 	2132.3 	0
-5.84453e-020 	0.00334525 	1.99971e-019 	12.6645 	2141.62 	0
-5.92923e-020 	0.0033595 	1.99971e-019 	-13.1812 	2151.91 	0
-5.75982e-020 	0.00337086 	1.99971e-019 	-57.3398 	2171.49 	0
-5.84413e-020 	0.00338887 	1.99971e-019 	16.8031 	2189.52 	0
-5.89322e-020 	0.00339724 	1.99971e-019 	50.7007 	2196.88 	0
-5.97648e-020 	0.00340253 	1.99971e-019 	15.6962 	2202.75 	0
-6.10354e-020 	0.0034245 	1.99971e-019 	17.1033 	2223.84 	0
-6.01393e-020 	0.00344625 	1.99971e-019 	17.6608 	2242.34 	0
-6.09864e-020 	0.0034527 	1.99971e-019 	17.0799 	2247.66 	0
-6.00398e-020 	0.00346313 	1.99971e-019 	17.826 	2256.74 	0
-6.00044e-020 	0.00348099 	1.99971e-019 	14.3388 	2272.03 	0
-6.02499e-020 	0.00348961 	1.99971e-019 	13.2345 	2280.28 	0
-5.94029e-020 	0.00351079 	1.99971e-019 	12.4111 	2300.02 	0
-5.97e-020 	0.00352632 	1.99971e-019 	19.2394 	2311.02 	0
-5.84453e-020 	0.00354165 	1.99971e-019 	42.7294 	2316.96 	0
-5.92923e-020 	0.00355262 	1.99971e-019 	16.236 	2325.44 	0
-5.60582e-020 	0.00357199 	1.99971e-019 	10.7225 	2336.19 	0
-5.41354e-020 	0.00358969 	1.99971e-019 	5.83317 	2347.78 	0
-5.32883e-020 	0.00360407 	1.99971e-019 	7.35797 	2354.59 	0
-5.37118e-020 	0.00362994 	1.99971e-019 	9.53532 	2368.6 	0
-5.42101e-020 	0.00364023 	1.99971e-019 	10.0187 	2373.32 	0
-5.49972e-020 	0.0036493 	1.99971e-019 	8.47942 	2378.37 	0
-5.58442e-020 	0.00367854 	1.99971e-019 	9.47772 	2392.39 	0
-5.65385e-020 	0.00371543 	1.99971e-019 	9.4737 	2401.29 	0
-5.6962e-020 	0.00371707 	1.99971e-019 	9.55061 	2401.53 	0
-5.65385e-020 	0.00371948 	1.99971e-019 	9.77417 	2402.27 	0
-5.85449e-020 	0.00375537 	1.99971e-019 	13.4054 	2412.01 	0
-5.64793e-020 	0.00377958 	1.99971e-019 	19.9274 	2426.44 	0
-5.73263e-020 	0.00379456 	1.99971e-019 	23.4714 	2435.23 	0
-5.81734e-020 	0.00382285 	1.99971e-019 	19.7649 	2450.76 	0
-5.92923e-020 	0.00383554 	1.99971e-019 	16.0857 	2457.06 	0
-5.88688e-020 	0.00384198 	1.99971e-019 	15.4445 	2457.97 	0
-5.76838e-020 	0.00387751 	1.99971e-019 	14.2075 	2461.57 	0
-5.59042e-020 	0.00391392 	1.99971e-019 	12.2049 	2469.22 	0
-5.40665e-020 	0.00392118 	1.99971e-019 	12.8853 	2470.37 	0
-5.40665e-020 	0.00393146 	1.99971e-019 	14.5316 	2474.67 	0
-5.58864e-020 	0.00396591 	1.99971e-019 	16.2383 	2489.76 	0
-5.66433e-020 	0.00399101 	1.99971e-019 	15.7875 	2498.18 	0
-5.59042e-020 	0.00401116 	1.99971e-019 	17.3981 	2505.12 	0
-5.33631e-020 	0.00403943 	1.99971e-019 	17.0995 	2507.45 	0
-5.2516e-020 	0.00405743 	1.99971e-019 	16.0675 	2508.34 	0
-4.99749e-020 	0.00407155 	1.99971e-019 	15.9518 	2510.44 	0
-4.91279e-020 	0.00410514 	1.99971e-019 	16.2419 	2515.76 	0
-4.74338e-020 	0.00414503 	1.99971e-019 	18.3018 	2530.61 	0
-4.74338e-020 	0.00415449 	1.99971e-019 	18.3177 	2534.15 	0
-4.76839e-020 	0.0041618 	1.99971e-019 	17.8363 	2536.42 	0
-4.40457e-020 	0.00420483 	1.99971e-019 	15.5904 	2548.99 	0
-4.56965e-020 	0.00424995 	1.99971e-019 	7.8614 	2551.72 	0
-4.48927e-020 	0.00425644 	1.99971e-019 	7.49326 	2551.95 	0
-4.48494e-020 	0.0042654 	1.99971e-019 	8.3851 	2552.42 	0
-4.48178e-020 	0.00431001 	1.99971e-019 	10.87 	2555.03 	0
-4.40457e-020 	0.00434086 	1.99971e-019 	11.2261 	2563 	0
-4.24622e-020 	0.00436392 	1.99971e-019 	9.72183 	2569.22 	0
-4.41563e-020 	0.00439882 	1.99971e-019 	10.1868 	2579.66 	0
-4.33011e-020 	0.00441993 	1.99971e-019 	8.97473 	2585.98 	0
-4.26299e-020 	0.00443467 	1.99971e-019 	8.54275 	2587.92 	0
-4.17829e-020 	0.004477 	1.99971e-019 	5.99425 	2592.83 	0
-4.20467e-020 	0.00452949 	1.99971e-019 	2.95532 	2595.31 	0
-4.24703e-020 	0.00453468 	1.99971e-019 	3.03962 	2595.56 	0
-4.15046e-020 	0.00454323 	1.99971e-019 	3.10323 	2596.92 	0
-4.06576e-020 	0.00459466 	1.99971e-019 	3.78451 	2604.74 	0
-3.89635e-020 	0.00462431 	1.99971e-019 	1.37618 	2611.55 	0
-3.72694e-020 	0.00465686 	1.99971e-019 	2.45467 	2617.71 	0
-3.61386e-020 	0.00471098 	1.99971e-019 	4.1225 	2624.17 	0
-3.64224e-020 	0.0047204 	1.99971e-019 	4.37492 	2625.14 	0
-3.64224e-020 	0.00472651 	1.99971e-019 	4.33281 	2625.76 	0
-3.5612e-020 	0.00478595 	1.99971e-019 	7.06498 	2631.01 	0
-3.46395e-020 	0.00483473 	1.99971e-019 	7.00321 	2636.51 	0
-3.46395e-020 	0.00485284 	1.99971e-019 	7.7186 	2638.15 	0
-3.63336e-020 	0.00487836 	1.99971e-019 	8.94457 	2640.97 	0
-3.38813e-020 	0.00491845 	1.99971e-019 	9.68827 	2645.42 	0
-3.38813e-020 	0.00494948 	1.99971e-019 	10.3273 	2648.45 	0
-3.5527e-020 	0.00498709 	1.99971e-019 	11.5832 	2651.81 	0
-3.72694e-020 	0.00504715 	1.99971e-019 	11.5289 	2657.37 	0
-3.71967e-020 	0.0050579 	1.99971e-019 	11.2685 	2658.2 	0
-3.65448e-020 	0.00506454 	1.99971e-019 	11.1191 	2658.77 	0
-3.48507e-020 	0.0051293 	1.99971e-019 	12.2844 	2663.43 	0
-3.21873e-020 	0.00518409 	1.99971e-019 	12.36 	2668.1 	0
-2.97315e-020 	0.00520192 	1.99971e-019 	13.0809 	2669.36 	0
-3.14256e-020 	0.00522761 	1.99971e-019 	13.6982 	2671.45 	0
-3.15911e-020 	0.00527549 	1.99971e-019 	14.1307 	2674.67 	0
-2.68486e-020 	0.00530987 	1.99971e-019 	14.1773 	2677.63 	0
-2.85427e-020 	0.00535006 	1.99971e-019 	16.6911 	2680.1 	0
-2.26135e-020 	0.00540823 	1.99971e-019 	19.2582 	2684.83 	0
-2.29942e-020 	0.00542646 	1.99971e-019 	19.6678 	2686.02 	0
-2.36675e-020 	0.00544013 	1.99971e-019 	19.6076 	2686.91 	0
-2.28204e-020 	0.00550317 	1.99971e-019 	20.7963 	2690.29 	0
-2.68815e-020 	0.0055733 	1.99971e-019 	21.0513 	2694.83 	0
-2.6458e-020 	0.00557849 	1.99971e-019 	20.9756 	2695.13 	0
-2.56109e-020 	0.00558663 	1.99971e-019 	21.0748 	2695.66 	0
-2.29348e-020 	0.00566061 	1.99971e-019 	20.0349 	2699.53 	0
-2.4825e-020 	0.00570937 	1.99971e-019 	20.7719 	2702.69 	0
-2.99072e-020 	0.00574368 	1.99971e-019 	20.422 	2704.62 	0
-2.65191e-020 	0.0058034 	1.99971e-019 	19.2676 	2708.38 	0
-2.62239e-020 	0.0058296 	1.99971e-019 	17.2526 	2710.17 	0
-2.65356e-020 	0.00584307 	1.99971e-019 	16.5443 	2711.16 	0
-2.06064e-020 	0.005917 	1.99971e-019 	13.4626 	2716.05 	0
-1.65613e-020 	0.00597959 	1.99971e-019 	13.5357 	2718.79 	0
-1.99495e-020 	0.00600655 	1.99971e-019 	13.9114 	2720.37 	0
-1.82554e-020 	0.00604936 	1.99971e-019 	14.9188 	2722.3 	0
-1.69407e-020 	0.00609805 	1.99971e-019 	15.8686 	2723.72 	0
-2.20229e-020 	0.00612925 	1.99971e-019 	14.86 	2726.27 	0
-2.24076e-020 	0.00618859 	1.99971e-019 	14.2086 	2729.77 	0
-2.49875e-020 	0.00627551 	1.99971e-019 	14.7462 	2733.85 	0
-2.44732e-020 	0.0062806 	1.99971e-019 	14.6489 	2734.15 	0
-2.42439e-020 	0.00628412 	1.99971e-019 	14.4745 	2734.44 	0
-2.17028e-020 	0.00637446 	1.99971e-019 	10.7012 	2740.53 	0
-1.87134e-020 	0.00644402 	1.99971e-019 	8.58594 	2739.53 	0
-1.52466e-020 	0.00646886 	1.99971e-019 	8.02657 	2740.29 	0
-1.18585e-020 	0.00650382 	1.99971e-019 	8.46101 	2741.69 	0
-1.44468e-020 	0.00656419 	1.99971e-019 	7.95009 	2743.77 	0
-8.90892e-021 	0.00660535 	1.99971e-019 	6.25957 	2745.54 	0
-5.52079e-021 	0.00666277 	1.99971e-019 	4.78547 	2747.65 	0
-2.97969e-021 	0.00674917 	1.99971e-019 	5.53257 	2752.35 	0
-5.34007e-021 	0.00676258 	1.99971e-019 	5.67674 	2753.16 	0
-4.23516e-021 	0.00677178 	1.99971e-019 	5.5278 	2753.69 	0
-7.84315e-021 	0.00686365 	1.99971e-019 	5.4652 	2757.13 	0
-5.71102e-021 	0.00694537 	1.99971e-019 	6.41039 	2756.65 	0
-6.77626e-021 	0.00696588 	1.99971e-019 	6.70961 	2757.14 	0
-8.47033e-021 	0.00699931 	1.99971e-019 	7.24428 	2757.99 	0
-1.01644e-020 	0.00706998 	1.99971e-019 	7.12245 	2759.34 	0
-9.7582e-021 	0.0071193 	1.99971e-019 	6.5773 	2761.64 	0
-3.38813e-021 	0.00717818 	1.99971e-019 	6.61409 	2763.94 	0
-8.06413e-021 	0.00724663 	1.99971e-019 	9.46708 	2766.63 	0
-1.35525e-020 	0.00729307 	1.99971e-019 	10.4759 	2770.42 	0
-1.69407e-020 	0.00732838 	1.99971e-019 	10.0719 	2770.9 	0
-1.35525e-020 	0.00740118 	1.99971e-019 	8.1638 	2774.64 	0
-1.48231e-020 	0.00750354 	1.99971e-019 	8.50515 	2778.56 	0
-1.45054e-020 	0.00750485 	1.99971e-019 	8.45067 	2778.61 	0
-1.46113e-020 	0.00750616 	1.99971e-019 	8.48399 	2778.64 	0
-2.03288e-020 	0.00761408 	1.99971e-019 	6.60406 	2780.4 	0
-2.38409e-020 	0.00770264 	1.99971e-019 	6.77673 	2784.43 	0
-2.20229e-020 	0.0077274 	1.99971e-019 	6.1883 	2785.11 	0
-1.52466e-020 	0.00776217 	1.99971e-019 	6.18295 	2786.59 	0
-1.54025e-020 	0.00784226 	1.99971e-019 	3.75127 	2790.37 	0
-1.20251e-020 	0.00789847 	1.99971e-019 	5.10375 	2793.83 	0
-1.88014e-020 	0.00795943 	1.99971e-019 	5.42534 	2796.45 	0
-1.01644e-020 	0.00805917 	1.99971e-019 	5.161 	2798.02 	0
-8.47033e-021 	0.0080778 	1.99971e-019 	4.7528 	2798.2 	0
-9.31736e-021 	0.00808841 	1.99971e-019 	4.46464 	2797.78 	0
-1.35525e-020 	0.00819766 	1.99971e-019 	3.56349 	2796.95 	0
-1.35525e-020 	0.00828765 	1.99971e-019 	4.08989 	2799.4 	0
-1.35525e-020 	0.0083206 	1.99971e-019 	4.09251 	2799.99 	0
-1.3972e-020 	0.00836948 	1.99971e-019 	4.77297 	2801.15 	0
-1.69407e-020 	0.00844587 	1.99971e-019 	4.43064 	2803.33 	0
-2.03288e-020 	0.00850044 	1.99971e-019 	4.59688 	2803.59 	0
-3.11243e-020 	0.0085718 	1.99971e-019 	4.58277 	2804.78 	0
-2.5411e-020 	0.00867336 	1.99971e-019 	5.38405 	2806.37 	0
-2.40831e-020 	0.00869875 	1.99971e-019 	5.1642 	2806.96 	0
-2.3881e-020 	0.00871626 	1.99971e-019 	4.89833 	2807.21 	0
-3.23514e-020 	0.00882731 	1.99971e-019 	3.46737 	2809.92 	0
-2.92701e-020 	0.0089358 	1.99971e-019 	3.93766 	2812.68 	0
-3.04932e-020 	0.00895736 	1.99971e-019 	3.86011 	2813.12 	0
-3.72694e-020 	0.00898846 	1.99971e-019 	4.07468 	2813.87 	0
-4.00383e-020 	0.00908923 	1.99971e-019 	3.02439 	2816.46 	0
-4.22963e-020 	0.00915905 	1.99971e-019 	3.51743 	2818.34 	0
-3.89081e-020 	0.00922209 	1.99971e-019 	3.47303 	2819.88 	0
-4.73785e-020 	0.00931334 	1.99971e-019 	3.75492 	2822 	0
-4.7806e-020 	0.00935617 	1.99971e-019 	3.42123 	2823.09 	0
-4.7042e-020 	0.00938538 	1.99971e-019 	3.83104 	2823.84 	0
-4.7042e-020 	0.00948914 	1.99971e-019 	3.97889 	2826.21 	0
-5.56251e-020 	0.00961783 	1.99971e-019 	4.21003 	2827.1 	0
-5.56251e-020 	0.0096264 	1.99971e-019 	4.27376 	2827.18 	0
-5.59042e-020 	0.00963893 	1.99971e-019 	4.28445 	2827.23 	0
-5.0955e-020 	0.00977075 	1.99971e-019 	4.19862 	2827.54 	0
-5.42101e-020 	0.00984583 	1.99971e-019 	1.39711 	2828.11 	0
-4.74338e-020 	0.0099051 	1.99971e-019 	1.11834 	2828.87 	0
-4.88984e-020 	0.00999915 	1.99971e-019 	1.74708 	2830.73 	0
-4.75149e-020 	0.0100469 	1.99971e-019 	1.81279 	2832.03 	0
-5.0822e-020 	0.0100789 	1.99971e-019 	1.70698 	2833.09 	0
-5.28283e-020 	0.010189 	1.99971e-019 	3.75296 	2836.28 	0
-4.55192e-020 	0.0103203 	1.99971e-019 	4.0635 	2838.81 	0
-4.57398e-020 	0.0103343 	1.99971e-019 	4.25316 	2839.25 	0
-4.72133e-020 	0.010355 	1.99971e-019 	4.75634 	2839.67 	0
-3.80486e-020 	0.0104755 	1.99971e-019 	6.76833 	2842.26 	0
-4.74338e-020 	0.0105668 	1.99971e-019 	10.834 	2840.98 	0
-5.00614e-020 	0.0106236 	1.99971e-019 	12.8335 	2841.75 	0
-4.40457e-020 	0.0107037 	1.99971e-019 	15.7909 	2842.94 	0
-3.72694e-020 	0.0107659 	1.99971e-019 	16.0951 	2844.78 	0
-4.06576e-020 	0.0107982 	1.99971e-019 	16.3063 	2845.28 	0
-3.97731e-020 	0.0109041 	1.99971e-019 	16.6639 	2847.42 	0
-4.06576e-020 	0.0110462 	1.99971e-019 	19.6469 	2851.78 	0
-4.15445e-020 	0.0110645 	1.99971e-019 	20.9386 	2852.09 	0
-3.98505e-020 	0.0110898 	1.99971e-019 	21.4911 	2852.32 	0
-3.95865e-020 	0.0112219 	1.99971e-019 	24.2041 	2851.67 	0
-4.0259e-020 	0.0113207 	1.99971e-019 	26.2478 	2853.12 	0
-3.38813e-020 	0.0113758 	1.99971e-019 	32.5387 	2850.89 	0
-3.38813e-020 	0.0114521 	1.99971e-019 	38.1614 	2849.41 	0
-3.72694e-020 	0.0115306 	1.99971e-019 	41.8251 	2846.9 	0
-4.06576e-020 	0.0116138 	1.99971e-019 	43.603 	2846.18 	0
-3.38813e-020 	0.0116937 	1.99971e-019 	50.6211 	2842.97 	0
-4.06576e-020 	0.0117387 	1.99971e-019 	54.6376 	2841.71 	0
-3.76542e-020 	0.0118508 	1.99971e-019 	53.5432 	2838.05 	0
-4.14085e-020 	0.0119946 	1.99971e-019 	59.304 	2834.06 	0
-4.10811e-020 	0.0119993 	1.99971e-019 	60.2134 	2833.58 	0
-4.19281e-020 	0.0120047 	1.99971e-019 	60.8408 	2833.42 	0
-5.42101e-020 	0.0121618 	1.99971e-019 	52.6609 	2813.03 	0
-5.75982e-020 	0.0122967 	1.99971e-019 	48.0108 	2812.96 	0
-5.66846e-020 	0.0123343 	1.99971e-019 	54.0906 	2807.12 	0
-5.75982e-020 	0.01238 	1.99971e-019 	61.8809 	2803.6 	0
-5.42101e-020 	0.0125128 	1.99971e-019 	52.2122 	2769.4 	0
-5.8323e-020 	0.0126136 	1.99971e-019 	31.7544 	2734.05 	0
-5.15467e-020 	0.0126879 	1.99971e-019 	29.6955 	2702.15 	0
-5.15467e-020 	0.0127855 	1.99971e-019 	50.4687 	2667.59 	0
-4.74338e-020 	0.0128645 	1.99971e-019 	54.0792 	2637.11 	0
-3.72694e-020 	0.0129256 	1.99971e-019 	48.3981 	2642.01 	0
-2.03288e-020 	0.0130406 	1.99971e-019 	35.1056 	2640.05 	0
-1.35525e-020 	0.0131649 	1.99971e-019 	21.9649 	2621.39 	0
-1.01644e-020 	0.0132032 	1.99971e-019 	24.2529 	2620.07 	0
-7.48566e-021 	0.0132348 	1.99971e-019 	20.3724 	2611.25 	0
0 	0.0133598 	1.99971e-019 	-19.2735 	2595.33 	0
1.69407e-021 	0.0134772 	1.99971e-019 	-1.97506 	2571.15 	0
0 	0.0135033 	1.99971e-019 	4.80428 	2567.77 	0
-1.69407e-021 	0.0135282 	1.99971e-019 	5.69273 	2564.22 	0
1.35525e-020 	0.013658 	1.99971e-019 	-0.171701 	2563.92 	0
9.4388e-021 	0.0137971 	1.99971e-019 	-10.292 	2524.09 	0
9.4388e-021 	0.013805 	1.99971e-019 	-11.4742 	2523.14 	0
8.22698e-021 	0.014 	1.99971e-019 	-0.322811 	2542.26 	0