# p  FACE_DATA 23640
#  x  y  z  p
-0.00296834 0.0159323 0 358.658
0.000794309 0.0100339 0 401.958
0.00690979 0.0130745 0 41.0199
0.000158008 0.0018211 0 308935
-0.000662165 0.0113619 0 706.542
-0.00203768 0.00587959 0 4771.57
-0.000220137 0.00748479 0 449.863
0.00214531 0.0125841 0 1760.2
-0.00164167 0.00702341 0 2241.56
0.00020958 0.00306993 0 4241.34
4.59799e-005 0.00273939 0 284910
0.00075606 0.00524313 0 934.871
0.00107075 0.0257944 0 705.118
-0.000458708 0.0115994 0 504.776
-0.000900467 0.00350322 0 7426.98
-0.00222355 0.00655891 0 4046.91
0.00442703 0.0182294 0 160.076
7.09705e-005 0.00299924 0 190883
-2.45517e-005 0.00292714 0 243963
-0.000543852 0.00394831 0 2531.31
7.98376e-005 0.00283498 0 273996
0.00510868 0.0124654 0 22.2805
7.37866e-005 0.00284217 0 272199
-0.000122136 0.00287943 0 270278
0.00117211 0.0120328 0 1118.61
0.000340217 0.00636002 0 685.491
-1.62375e-005 0.00331413 0 22837.3
0.000288499 0.00391811 0 3655.53
0.00604323 0.0215883 0 83.0398
0.0015748 0.0199438 0 943.184
0.000642306 0.0286533 0 550.812
-0.000788091 0.000235815 0 365317
8.45076e-005 0.00283429 0 274450
-0.000766033 0.00453527 0 1355.7
-0.000556446 0.00360452 0 2622.86
-0.000694613 0.00330261 0 6445.96
0.00425461 0.0181246 0 167.766
0.00563158 0.0299784 0 294.531
0.00374311 0.0125452 0 55.744
-0.000168184 0.00269727 0 292927
0.00100487 0.00483203 0 1007.24
-0.00170325 0.00704586 0 2363.15
-0.00047461 0.0123053 0 720.055
-0.00401905 0.0129379 0 41.3703
0.000128446 0.00148328 0 310695
0.000108141 0.00315803 0 31514.4
0.00299545 0.0176096 0 315.778
0.00122698 0.00708374 0 551.57
0.000214903 0.00307399 0 4233.21
0.00225142 0.0126586 0 1853.49
0.000204708 0.00068009 0 324595
4.25297e-005 0.00299727 0 196756
-0.000477288 0.00315875 0 5571.49
-0.00378992 0.02149 0 172.157
0.000139812 0.00181138 0 308919
0.000208917 0.00302796 0 4045.22
-0.00160791 0.0049468 0 4835.73
0.000941143 0.00995448 0 630.972
8.9442e-006 0.010956 0 218.779
-0.000434056 0.00133506 0 313180
0.000566946 0.0289715 0 528.418
-7.40414e-005 0.003214 0 32386.8
-0.000145493 0.00239699 0 302705
3.42483e-005 0.00298986 0 204940
0.000575544 0.00987125 0 256.14
3.71363e-005 0.00299095 0 203641
-0.00247102 0.00772987 0 3525.46
0.00096928 0.0118325 0 998.49
-9.22697e-005 0.00299969 0 175378
-0.000570617 0.0122505 0 790.509
-0.000211411 0.00254812 0 300135
-0.000765289 0.00457715 0 1296.65
8.13068e-005 0.00294139 0 245807
-0.00437678 0.0203082 0 153.887
0.00226862 0.00661101 0 3946.26
-0.000832194 0.000220534 0 359392
-0.000164868 0.00301134 0 4353.89
0.0012393 0.0259768 0 672.786
-2.48279e-005 0.00292318 0 245935
0.000116572 0.00245177 0 300930
9.77655e-005 0.00313112 0 38467.3
0.000279024 0.00328636 0 6994.39
-5.75605e-005 0.0116355 0 228.88
-7.47936e-005 0.0117342 0 232.267
0.000518168 0.00993111 0 247.284
-0.000154608 0.0030256 0 4574.47
4.53443e-005 0.00299839 0 195612
-0.000161071 0.0027724 0 286863
0.000104836 0.00293916 0 251633
-0.00100104 0.00361077 0 7169.43
-0.000510005 0.00921774 0 292.639
0.00100295 0.0100141 0 811.637
-0.000646084 0.00336418 0 4172.7
6.96906e-005 0.00293287 0 246615
-1.67264e-005 0.00300289 0 192682
0.000173509 0.0227352 0 1153.56
3.17037e-005 0.00298455 0 209461
0.000312244 0.00306502 0 5033.89
-0.00212604 0.00906512 0 2240.22
-0.00049218 0.00322389 0 4298.99
0.000341345 0.00323843 0 4313.82
-0.00385942 0.0216496 0 172.303
-0.000125834 0.0028813 0 270190
0.00524627 0.0255212 0 125.159
0.000713781 0.0036837 0 1821.29
0.00601727 0.0299149 0 280.966
-0.000344095 0.00203632 0 308694
-0.0047341 0.0239481 0 125.617
-0.000460773 0.00539436 0 995.486
-0.00196148 0.00905338 0 2084.18
0.00143807 0.0303782 0 465.475
7.94637e-005 0.00293894 0 246435
0.00013473 0.00481908 0 1572.11
0.00105264 0.00484794 0 969.195
0.000112877 0.0030262 0 16965.3
-0.00781161 0.0282885 0 62.0104
-0.000846622 0.00344471 0 7083.29
-0.00206201 0.0306837 0 427.326
-0.00313594 0.0160362 0 310.939
0.00144289 0.0198776 0 1025.85
-0.000135136 0.00286502 0 274010
-0.000205101 0.000950881 0 314592
0.000372212 0.00308853 0 6067.6
0.000370404 0.000795868 0 316779
0.000201681 0.00347815 0 8688.84
-0.000147808 0.00278598 0 284998
0.000218103 0.000637733 0 333696
0.000195722 0.00313377 0 9003.16
-0.00203813 0.00594128 0 4568.64
0.00112067 0.00510142 0 843.399
5.16573e-005 0.00373385 0 6029.84
0.000381501 0.00336875 0 4273.82
0.000860715 0.0258401 0 752.036
-0.000116556 0.00339842 0 13173.3
-0.00513668 0.0257477 0 155.948
-0.000162894 0.00277847 0 286704
8.27341e-005 0.00277738 0 282056
0.0010674 0.0118759 0 1066.17
-4.09992e-005 0.00275121 0 283591
3.29665e-005 0.00297369 0 218267
-0.00204547 0.0090065 0 2223.2
-0.00160474 0.0048986 0 4989.94
8.25825e-005 0.00294819 0 242628
4.00473e-005 0.00273627 0 285103
-9.41642e-005 0.00295571 0 241913
0.00150619 0.00997327 0 1455.89
8.22134e-005 0.00268838 0 290131
-0.000160791 0.00267895 0 293473
-0.000596112 0.00909085 0 298.929
-9.31423e-005 0.00299701 0 193550
0.00235681 0.0126226 0 1947.62
0.00203765 0.00557212 0 5011.37
-0.000165794 0.0115731 0 246.171
6.0159e-005 0.0021996 0 305248
0.000371981 0.00362464 0 4354.97
-0.00733688 0.029685 0 173.593
-0.000180414 0.00743151 0 450.237
-0.000357207 0.004885 0 1409.37
0.00253943 0.00813968 0 3182.58
-1.29377e-005 0.00332967 0 22210.4
-0.0010235 0.00361199 0 7362.59
-0.000285329 0.0030748 0 4535.09
-0.000681311 0.00329291 0 6505.93
-0.00260727 0.00895038 0 2607.12
0.00788717 0.0276195 0 65.9446
0.0089704 0.0287411 0 49.5564
-0.000270534 0.00232157 0 305435
-0.00014416 0.00312601 0 20235.3
-0.000337662 0.00201762 0 308810
0.0003962 0.00337513 0 4245.33
0.00121317 0.00701782 0 549.473
0.000116206 0.00302915 0 15466
0.00225197 0.00666935 0 3935.15
-0.000507665 0.00548922 0 940.821
-0.000231863 0.00226746 0 305660
0.000244361 0.00226851 0 305868
0.00111028 0.00505498 0 858.819
0.000121223 0.00304184 0 17568.9
0.00012049 0.00243938 0 301379
-0.0013386 0.0186068 0 813.78
0.000102064 0.00149733 0 310638
0.000147362 0.00301363 0 3033
0.00106981 0.0119939 0 1058.78
-0.000365953 0.00411169 0 2780.29
0.00557444 0.020358 0 103.396
4.86089e-005 0.00307386 0 98349.6
-0.000177413 0.0035472 0 7772.85
-0.000632994 0.00339325 0 3000.34
0.000487307 0.00130985 0 313604
-0.000349424 0.00402777 0 3151.37
-0.00177251 0.00629586 0 3306.13
-7.92525e-005 0.00273084 0 286660
0.000241714 0.00100077 0 314103
-0.000154516 0.0114773 0 242.706
0.00502442 0.0222916 0 119.322
-0.000166546 0.00272686 0 290918
0.000707598 0.00365891 0 1851.54
-0.00157418 0.0046046 0 5753.6
0.000122725 0.00301099 0 3249.69
0.000172305 0.00324558 0 14811.5
7.46185e-006 0.00286175 0 264885
0.00533293 0.0140838 0 30.2306
0.00520504 0.0284215 0 328.319
-0.00170266 0.00713636 0 2310.71
4.38765e-005 0.00290514 0 253615
0.00035679 0.0099507 0 244.022
0.000120447 0.00300871 0 3253.58
7.85992e-005 0.00284146 0 272837
0.000146556 0.00306157 0 10925.4
-0.000265484 0.00230758 0 305659
-0.000558184 0.0114136 0 563.28
0.000873988 0.011905 0 944.94
0.00195145 0.0157285 0 808.835
0.000415959 0.00988952 0 245.221
0.00204861 0.00551694 0 5097.45
0.00159497 0.00893937 0 1672.72
0.00125366 0.00690066 0 630.139
-0.000537482 0.00397822 0 2482.84
-0.00245206 0.00890865 0 2775.66
-0.00591638 0.015069 0 30.1106
0.00182541 0.0157696 0 832.891
-6.39179e-005 0.00274368 0 284724
1.24162e-005 0.00286011 0 265502
0.000785526 0.00520879 0 955.377
0.000119132 0.00288179 0 269407
0.000107617 0.00492998 0 1480.68
-0.000398708 0.00617064 0 686.782
-0.00031795 0.000861625 0 316035
-0.0054742 0.0145195 0 35.0668
-0.00050603 0.0093045 0 293.418
-0.00281713 0.0160093 0 399.534
-0.00521587 0.0225645 0 109.739
0.000631138 0.00410172 0 1945.46
0.00077675 0.0118594 0 893.866
-0.000339893 0.00491785 0 1397.35
0.000278502 0.0033019 0 7033.01
-0.000206291 0.0025551 0 299719
0.0015782 0.00885327 0 1663.74
-0.000601058 0.00917374 0 299.006
0.000107852 0.00308374 0 36808.7
0.000329157 0.00324408 0 4831.48
-0.000107456 0.0030138 0 16149.1
0.000995869 0.00478803 0 1029.79
-0.00176263 0.00715431 0 2469.2
0.000133123 0.00190024 0 308327
0.00428452 0.0222831 0 159.037
0.00249322 0.0134845 0 1120.47
0.000209201 0.00303326 0 4011.95
1.124e-005 0.00241342 0 301327
-0.000138897 0.00282521 0 280423
-0.000422518 0.00130967 0 313444
0.000897928 0.00602889 0 687.705
0.00296246 0.0177704 0 330.69
-0.000240922 0.0022558 0 305870
0.000161456 0.0106342 0 223.497
-0.000169117 0.00269067 0 293199
-0.00600599 0.0132277 0 23.8942
-0.00498542 0.0226529 0 116.548
0.00035646 0.00189436 0 309487
0.000360867 0.00193124 0 309279
0.000188008 0.00159518 0 310283
0.00315697 0.0294361 0 469.076
0.000380728 0.00331446 0 4050.54
-0.000407732 0.00541329 0 1017.12
0.00599218 0.0187772 0 71.6251
-0.000475668 0.0124289 0 734.217
9.243e-005 0.00339173 0 14945.5
-0.0022067 0.00902531 0 2390.99
0.000138287 0.010546 0 224.229
-4.59787e-005 0.00300592 0 185892
0.000475334 0.00325723 0 2907.15
0.0081269 0.0233608 0 48.3941
-0.000136448 0.00286953 0 273867
0.000465099 0.00132931 0 313547
0.000196949 0.00312437 0 9086.37
-0.000725979 0.00459524 0 1406.51
0.00566025 0.0201173 0 104.855
-0.000237093 0.000937504 0 314923
-7.15727e-006 0.00298867 0 205774
-0.000556128 0.00552312 0 912.067
-0.000151452 0.00278159 0 285831
0.00604583 0.0167381 0 45.8545
5.44524e-005 0.00307484 0 94332.7
3.5211e-005 0.00270778 0 287628
-0.00210731 0.0068781 0 3551.73
8.91266e-005 0.00319599 0 32691.8
-0.00242079 0.00974735 0 2392.51
0.00135885 0.00413507 0 6780.12
-0.00108228 0.00797081 0 404.63
3.29303e-005 0.00271504 0 286823
-0.000508078 0.0208168 0 1550.3
-0.00472826 0.0198065 0 129.658
0.00152826 0.0090827 0 1575.77
-0.00252462 0.00897287 0 2726.22
-4.09377e-005 0.0027578 0 282845
-0.00186927 0.0116808 0 1605.38
0.00108447 0.00518193 0 859.616
-0.00419392 0.0202211 0 165.469
0.000296615 0.00594885 0 806.063
0.00365557 0.0156923 0 223.208
-0.000138643 0.00311989 0 21474.4
3.44704e-005 0.00298593 0 208298
-0.000249911 0.000891772 0 315109
0.00110337 0.0099601 0 1080.64
8.04689e-005 0.00279643 0 279347
0.00779157 0.0249956 0 57.3532
0.000351464 0.00337107 0 4963.41
-0.00012879 0.00323538 0 20798.7
0.000155895 0.00168996 0 309706
8.56943e-005 0.00294739 0 243753
0.0053023 0.0238774 0 110.526
0.000238423 0.00318026 0 7784.23
0.000230406 0.00226533 0 305759
-5.15866e-005 0.00292996 0 245162
2.57476e-005 0.00286927 0 263501
0.000105066 0.00340141 0 13785
-0.0006343 0.00341198 0 2793.18
-0.00683177 0.0130924 0 35.0552
-1.54609e-005 0.00299907 0 196412
-0.00215958 0.00656839 0 4159.44
0.00301179 0.0141363 0 414.35
-0.000723924 0.00463742 0 1376.42
-0.000555458 0.00358088 0 2713.65
0.000287933 0.00394954 0 3485.79
-0.00525881 0.0259389 0 156.299
-0.000235386 0.00314485 0 6595.79
-0.000664883 0.00104525 0 317506
0.00182857 0.0107598 0 1644.34
0.00289308 0.0133881 0 659.546
0.000556851 0.000459359 0 342623
-6.31462e-005 0.00306344 0 95245.8
0.00204396 0.0126442 0 1676.3
-0.000369072 0.00408052 0 2877.15
-0.00018247 0.00378321 0 4869.77
0.000579156 0.0162179 0 1720.49
0.00117061 0.0100074 0 1139.07
0.000129771 0.00301154 0 2999.58
0.00050022 0.00329429 0 2711.76
-0.00194273 0.0117557 0 1638.39
0.000295066 0.00600891 0 804.677
-0.000154748 0.0030213 0 4086.39
8.51353e-005 0.00297491 0 226854
0.000370749 0.00364798 0 4233.11
0.00032381 0.000892659 0 315652
-0.000114683 0.00273658 0 287521
7.10543e-005 0.0030026 0 183155
-9.6647e-005 0.00324264 0 24984
0.000733896 0.00537107 0 935.894
0.000155197 0.00494735 0 1388.88
0.000610019 0.00412319 0 2027.14
0.000353717 0.00194986 0 309173
-0.000244432 0.00314026 0 5850.94
-0.00502653 0.0232658 0 117.261
-0.00178789 0.0309983 0 421.736
-0.000579723 0.00361754 0 2535
0.00813841 0.0273314 0 60.7787
-0.002496 0.0131044 0 1465.38
-0.00431729 0.0290645 0 383.017
-0.000157683 0.00240005 0 302793
-6.09633e-005 0.00273787 0 285578
-0.000172602 0.00356894 0 7482.11
5.95493e-005 0.00280503 0 277306
3.59382e-005 0.00297531 0 217158
0.0038221 0.0156522 0 203.518
0.00151814 0.00899556 0 1553.7
0.00891208 0.0209237 0 26.9333
0.00932881 0.0247628 0 41.765
0.000401147 0.00319889 0 3154.57
-1.37134e-005 0.00292236 0 245820
-0.00149883 0.0199029 0 913.06
-0.000151382 0.00307642 0 12242.1
-9.99299e-005 0.00297786 0 228482
0.00528439 0.0241343 0 111.084
2.61097e-005 0.00286432 0 264734
0.000206875 0.00349712 0 8254.59
-0.00509797 0.0234717 0 116.576
-0.000597722 0.000953511 0 318575
-0.00793898 0.0155863 0 36.1593
0.00183935 0.0106624 0 1658.99
7.52069e-005 0.00339368 0 15340.5
-7.77056e-005 0.00294222 0 243837
-9.8985e-005 0.00297992 0 226669
0.00161823 0.00911669 0 1673.26
8.21842e-005 0.00297527 0 225475
-0.00188133 0.00900925 0 2042.21
-0.00617827 0.0275965 0 174.24
-0.000490092 0.00321051 0 4655.93
0.00945115 0.0288751 0 46.3995
-0.00016434 0.00272067 0 291337
-0.00797941 0.0222445 0 46.0437
-4.01564e-005 0.00301654 0 174634
-0.00180498 0.00506765 0 5325.84
-0.000161305 0.00301261 0 4317.2
-0.000482063 0.00316965 0 5412.99
-0.000942791 0.00378901 0 3535.47
-0.000134053 0.00282435 0 280230
0.000242746 0.000963685 0 314337
0.00525461 0.0274919 0 316.411
0.00306352 0.0179257 0 321.357
-0.000120066 0.00324295 0 21384.5
-0.00319507 0.0125029 0 347.663
-0.000290892 0.00233844 0 305515
0.00159844 0.00482417 0 5253.83
0.00787978 0.0236538 0 55.55
0.00145057 0.0259009 0 716.285
-0.000336257 0.00619409 0 693.563
-0.000333917 0.00172186 0 310411
0.00577509 0.0216659 0 91.4534
0.000667048 0.00332313 0 5692.27
0.00248969 0.00807562 0 3249.14
-0.00160944 0.00467215 0 5774.83
1.98969e-005 0.00242157 0 301224
0.000286635 0.0021356 0 307422
-0.00161117 0.00618199 0 2650.04
7.54635e-005 0.00268391 0 290346
0.00101663 0.00497361 0 915.864
9.78423e-005 0.00320089 0 30266.9
-0.000282098 0.0245537 0 847.497
0.00160534 0.0053807 0 3844.01
0.000645555 0.00426047 0 1816.6
0.000344665 0.00191282 0 309371
-4.37224e-005 0.0030135 0 177141
0.000410526 0.00592784 0 776.491
-0.00161438 0.00462874 0 6004.12
0.000197339 0.00307463 0 4976.8
-0.00787948 0.0250527 0 54.0965
0.000365567 0.000836364 0 316313
0.000428529 0.0031113 0 5941.66
6.29689e-005 0.00280138 0 278181
-0.00260928 0.0115127 0 2157.42
0.00511854 0.0182191 0 103.249
-0.000191506 0.0013612 0 311587
0.000255298 0.00234631 0 304810
7.80872e-005 0.00285378 0 270789
-6.93966e-006 0.00361778 0 8333.64
-0.000112834 0.00273034 0 288075
-0.000151306 0.00308356 0 13158.5
0.000794921 0.00339323 0 6979.09
0.000120559 0.00308016 0 28217
-0.00060963 0.000994212 0 317926
-0.000187211 0.00375918 0 5128.25
-0.000179749 0.00239602 0 303093
0.000583853 0.00320912 0 6759.27
-0.000220391 0.00307379 0 4517.5
-3.20721e-005 0.00313154 0 69165.5
-0.00240166 0.00829286 0 2892.82
-0.000107553 0.0032363 0 23849.5
0.000485775 0.00324734 0 3179.41
-1.6528e-005 0.00283252 0 271038
0.000388916 0.00319175 0 3145.87
-0.000191501 0.000101552 0 582557
-0.00244196 0.00780076 0 3358.45
-0.000237142 0.00223825 0 306115
-0.00179252 0.00511195 0 5326.47
7.86645e-005 0.00300926 0 162215
-0.00578012 0.0268724 0 161.09
-0.00101007 0.00801211 0 380.569
0.000363332 0.00337974 0 4950.54
0.000391279 0.00186159 0 309882
0.000433244 0.00317308 0 4489.42
0.00161612 0.00543442 0 3849.18
-0.00207993 0.00693738 0 3464.71
0.000483914 0.00474879 0 1506.31
0.000802557 6.40842e-005 0 407687
0.00066144 0.00330597 0 5886.6
0.00141767 0.0197289 0 1032.38
-0.000651775 0.00329699 0 5819.85
0.000282152 0.00304241 0 4893.65
-0.000357054 0.00319624 0 3495.08
-0.00178284 0.00623412 0 3409.17
3.8992e-005 0.00380209 0 5508.19
-0.00100109 0.0210667 0 1296.14
0.000165033 0.00158259 0 310347
0.00864187 0.0174253 0 31.5438
0.00315453 0.0128329 0 405.781
-8.64597e-005 0.00318341 0 34362.8
-0.000259494 0.0126492 0 634.826
0.000466396 0.000355167 0 400369
0.000246728 0.00318708 0 7416.45
-0.000724122 0.000493878 0 333871
-0.00236534 0.0089472 0 2619.56
-0.00585899 0.0184819 0 76.2767
-0.000109395 0.00425783 0 2674.94
-0.000225082 0.00307869 0 4439.91
0.00116126 0.00383867 0 6756.78
0.000146244 0.00305529 0 9711.14
0.000106639 0.00285591 0 272936
0.00516349 0.0142403 0 37.7622
-0.000547118 0.0281975 0 590.65
-0.00314055 0.0188201 0 261.433
6.39205e-005 0.0034062 0 14332.3
0.000746714 0.00049437 0 332436
0.00226648 0.0258744 0 628.276
-0.000137355 0.00283875 0 278640
0.00173233 0.0108179 0 1539.75
-0.000334456 0.00625618 0 674.234
-0.000652252 0.00338145 0 3886.64
-6.89277e-005 0.00306466 0 86828.8
0.000126795 0.00304178 0 12975.7
0.00478399 0.0277755 0 369.39
0.000516287 0.0229306 0 1110.61
5.89116e-005 0.00254342 0 297368
-0.00795861 0.0246948 0 54.6945
0.00133689 0.00999394 0 1322.61
-0.000118825 0.0220921 0 1328.97
6.34909e-005 0.0107046 0 221.043
-0.000946741 0.00381309 0 3364.77
0.00581241 0.0241952 0 96.7495
-0.00487736 0.01991 0 125.152
0.00170829 0.0256098 0 725.714
9.98067e-005 0.00316224 0 33845.7
0.00308063 0.0142797 0 410.298
-0.000279242 0.00307977 0 4273.07
-0.000183934 0.00303725 0 4081.1
7.83288e-005 0.00286324 0 268177
-0.000440884 0.00514493 0 1100.54
0.000455558 0.00477565 0 1471.42
0.00520625 0.0221693 0 117.683
-0.00179507 0.00722781 0 2497.2
5.54873e-005 0.00266826 0 290975
-0.00157971 0.00456195 0 6009.99
4.18607e-005 0.00302762 0 159406
-0.000194972 5.19224e-005 0 588409
-0.000846289 0.00342394 0 7507.37
-0.00105965 0.00823661 0 401.851
0.000163413 0.00479131 0 1591.5
-8.2874e-005 0.00288534 0 263850
0.00157378 0.00552232 0 3458.42
-7.66839e-005 0.00293931 0 245205
0.000101978 0.0109948 0 214.274
-0.000363872 0.00601296 0 730.305
0.000117978 0.00287815 0 270433
0.000219153 0.00318835 0 8995.74
-0.00163196 0.00449872 0 6233.34
-0.000221409 0.00303399 0 4591.37
-0.000370966 0.0244074 0 878.594
-0.000466554 0.00315829 0 5411.81
0.000396164 0.00331941 0 3723.42
-0.00482666 0.0238063 0 127.211
0.00133411 0.00522841 0 1664.24
-0.00267568 0.00982141 0 2673.59
-0.000480207 0.0219659 0 1303.41
0.00177473 0.0106071 0 1614.68
0.000428512 0.00597987 0 776.461
0.00330832 0.0202369 0 219.082
-0.00036699 0.012473 0 657.924
-0.000901486 0.00347959 0 7712.02
-9.70158e-005 0.00294708 0 246530
-0.00110466 0.0144253 0 1117.14
-0.00107199 0.0143087 0 1102.44
0.000113095 0.0030798 0 33736.5
0.000776547 0.0117402 0 883.11
-0.000196596 0.00302496 0 4217.01
-0.00581483 0.0148124 0 31.2181
0.000125326 0.00308478 0 26425
-0.00172589 0.0230235 0 871.668
-0.00123798 0.0114294 0 1147.06
-0.000106038 0.00301072 0 15328.9
7.68012e-005 0.00277918 0 281573
-0.000218387 0.00226751 0 305652
0.00288382 0.0120736 0 2201.67
0.000136685 0.00272066 0 289897
0.00126396 0.00994364 0 1273.87
0.000169734 0.00323168 0 15299.2
3.33298e-005 0.00296283 0 226033
7.38909e-005 0.00285244 0 270668
0.00226662 0.00684142 0 3861.86
-4.80444e-005 0.00288948 0 259226
0.000117291 0.00304527 0 22845.3
0.00044057 0.00316393 0 5004.02
0.00025781 0.000139806 0 535199
-0.000553437 0.0115383 0 607.465
0.00174054 0.0109254 0 1541.44
-0.00657824 0.0304887 0 236.215
-0.00287878 0.0309438 0 402.487
-1.74214e-005 0.00292383 0 245278
0.000417861 0.00311152 0 5771.5
-0.000158816 0.00302837 0 4571.11
0.000540608 0.00339996 0 2412.45
0.00322243 0.0179545 0 264.423
-0.000159371 0.0013528 0 311544
0.000126077 0.0159893 0 2267.59
-0.00432652 0.0294311 0 381.95
0.0015673 0.00546801 0 3432.07
-5.0904e-005 0.00292621 0 246785
-0.000106737 0.00293051 0 254934
0.00275932 0.0110589 0 2422
0.000556951 0.00340784 0 2357.98
0.000399007 0.0063813 0 650.79
-4.55764e-005 0.00288684 0 259795
5.78688e-005 0.00240298 0 301627
-0.00135948 0.0128543 0 1228.56
0.00105587 0.00489705 0 913.275
-0.00180772 0.00736401 0 2500.23
8.62884e-005 0.0107917 0 221.184
-1.73838e-005 0.00299616 0 199532
-0.000559779 0.00402893 0 2264.72
-0.000129894 0.00339006 0 12966.9
-0.00108645 0.0209701 0 1311.78
-0.000355289 0.00318516 0 3536.96
6.75287e-005 0.00268766 0 289767
-1.6399e-005 0.00282695 0 272211
0.000375645 0.00184967 0 309888
0.000226595 0.00318087 0 8416.63
-0.00157723 0.0197887 0 811.72
0.000153682 0.00302297 0 3353.47
-0.000983791 0.00376429 0 5001.55
0.00320404 0.0139037 0 385.769
-0.000399729 0.0051532 0 1191.71
-8.43671e-005 0.0028893 0 262996
0.00153091 0.0204307 0 1082.79
0.0023948 0.0125217 0 1941.25
0.000662239 0.00525468 0 1012.14
-0.00103759 0.0179087 0 1118.97
-0.00194218 0.00558429 0 4845.32
-0.000960129 0.00376594 0 4498.9
-0.000309837 0.00306474 0 5245.54
0.00162461 0.00920594 0 1667.83
0.00346181 0.0203111 0 206.241
0.000412094 0.000782235 0 317667
4.10836e-005 0.00290739 0 252878
0.00107752 0.00513333 0 856.531
-0.00139776 0.00696247 0 1022.54
5.83714e-005 0.0023895 0 302008
0.000501828 0.0119171 0 722.682
-2.97555e-005 0.00300349 0 191221
0.00113092 0.00612109 0 592.864
3.11664e-005 0.00285722 0 266571
-0.000756348 0.0223669 0 1148.96
0.000606022 0.00322532 0 6691.12
0.00858419 0.0213223 0 32.4352
0.00228739 0.00873166 0 2570.31
-0.00330691 0.0124678 0 184.988
-0.00135503 0.018735 0 833.071
-0.00782909 0.0173425 0 25.3833
0.000179373 0.00168518 0 309761
0.000181353 0.0228576 0 1153.76
0.00116853 0.00608209 0 598.82
0.00534216 0.0272787 0 308.976
0.000808836 0.00340365 0 7098.26
-0.00176706 0.00728799 0 2449.22
0.000366125 0.00308127 0 6025.69
0.000142062 0.00271694 0 290308
0.000456136 0.0264018 0 716.335
0.000149779 0.00301624 0 3122
8.09965e-005 0.015903 0 2266.56
3.07264e-005 0.00286231 0 265372
-0.000148146 0.00339011 0 12162.1
-0.0064378 0.0277565 0 157.246
0.00072806 0.00532362 0 936.256
-0.00065633 0.00335203 0 4768.73
-0.000360464 0.000878987 0 316322
-9.67537e-005 0.00295742 0 241834
-0.000484113 0.00948683 0 280.889
-0.000565445 0.00399845 0 2368.39
0.000588623 0.00111811 0 315975
0.000130395 0.00304539 0 13016.7
0.000107754 0.00285149 0 273777
0.00165731 0.0250536 0 749.483
0.00285988 0.0119675 0 2279.41
-9.54028e-005 0.00428588 0 2618.16
-0.000124414 0.00317156 0 25251.8
-0.00814733 0.0285856 0 62.732
-0.000216377 0.0031251 0 7140.78
0.00549751 0.012219 0 24.7527
-0.00550796 0.012201 0 18.2624
0.00287309 0.0132504 0 696.511
0.000396043 0.00090361 0 316087
-9.96587e-005 0.00294535 0 248195
-0.00215947 0.00674928 0 3763.7
-0.000289559 0.000893856 0 315412
0.00184728 0.00894591 0 1967.2
-0.000404895 0.00611192 0 710.09
-0.00085135 0.00350535 0 6320.05
3.34633e-006 0.00298331 0 210084
0.00378526 0.0199019 0 196.491
-0.000528492 0.024373 0 910.536
-0.000842118 0.0116133 0 926.343
-0.00298148 0.0188909 0 271.138
5.9556e-005 0.0025331 0 297787
-0.000468824 0.00121303 0 314424
9.1581e-005 0.0171817 0 2582.54
-0.00127026 0.0113439 0 1172.26
0.00402234 0.0130084 0 36.855
-0.000363163 0.00496329 0 1300.79
-0.00609252 0.0268039 0 120.579
0.000283831 0.00172705 0 310015
-0.000884834 0.00452052 0 1218.5
0.000104251 0.00312707 0 36041.2
0.00028648 0.000908897 0 315220
0.00627587 0.0218045 0 76.891
0.000138189 0.00301242 0 2927.41
-8.45766e-005 0.00300744 0 156185
-0.000367296 0.0115469 0 358.118
4.43738e-005 0.00303088 0 153560
0.00481648 0.0179238 0 123.397
0.00149749 0.00436073 0 6524.01
0.00128386 0.00510424 0 1254.59
-0.000137123 0.00279496 0 283757
0.00010392 0.0048879 0 1484.17
-0.00091848 7.16259e-005 0 372751
3.54985e-006 0.00298714 0 206952
0.000749152 0.00426831 0 1564.17
-0.000130195 0.00286367 0 274047
0.00513916 0.0264131 0 258.937
-0.00145383 0.00693267 0 1422.91
-0.000170314 0.00271408 0 292077
0.000708754 0.00344963 0 3497.85
0.000173403 0.0026398 0 295840
0.00102924 0.00397184 0 3000.8
7.04719e-005 0.00292897 0 248581
-0.000154347 0.00277069 0 286897
0.000152777 0.00306484 0 10130.3
-0.0057264 0.0155753 0 35.2249
-0.00516063 0.0124211 0 17.4112
-0.000727401 0.00332353 0 6472.03
0.00177507 0.00499121 0 5444.23
-0.00104148 0.00729487 0 427.49
8.03056e-005 0.00285902 0 269313
0.000619507 0.00322392 0 6667.38
0.000491741 0.00344599 0 2992.38
-8.64345e-005 0.00319528 0 32731.4
0.000495863 0.00327729 0 2833.56
0.00629165 0.0165428 0 31.7277
-0.000348261 0.00373379 0 3875.93
0.00695359 0.012557 0 36.6281
-0.00614658 0.0186042 0 67.8986
0.00446424 0.0221677 0 149.213
-0.000789844 0.00391708 0 1626.9
0.000117774 0.00196522 0 307823
-0.000255362 0.0148691 0 1716.93
-0.00503812 0.0284552 0 328.343
-0.000107009 0.00253653 0 298396
0.000146628 0.00274959 0 288348
0.00773255 0.0309094 0 184.057
0.000159147 0.00499252 0 1384.95
0.000514649 0.00313677 0 6390.94
0.00101358 0.00492618 0 928.779
-0.00010231 0.00251506 0 298951
-0.000149253 0.0149017 0 2030.01
-0.0026764 0.0106555 0 2375.87
-0.000401914 0.00497223 0 1242.78
-9.9778e-005 0.00250395 0 299361
-0.000167489 0.00307565 0 8614.88
0.00547148 0.0254757 0 112.311
6.86885e-005 0.00304125 0 112357
-0.00443178 0.028435 0 376.556
-9.60567e-005 0.00299261 0 211861
0.00605816 0.0243911 0 92.3419
-0.00166852 0.0218177 0 975.481
3.51271e-005 0.00306949 0 113018
0.00934401 0.0252145 0 41.3701
0.000689131 0.0161709 0 1371.33
-0.00185288 0.0231304 0 837.729
-0.000635695 0.0147353 0 983.729
0.000424951 0.000378919 0 396980
3.11571e-005 0.00341221 0 14454
-0.00451594 0.0239154 0 130.192
4.55634e-005 0.00300278 0 190752
-0.000190882 0.0026229 0 297257
-0.00293428 0.0314144 0 406.05
0.000192455 0.0109275 0 214.306
-7.99306e-005 0.00301235 0 148588
-0.000103784 0.019352 0 2169.86
0.000298059 0.00179298 0 309669
0.000318272 0.00306073 0 5105.84
4.79498e-005 0.00267219 0 290753
0.000550505 0.00439983 0 1785.07
-6.64966e-005 0.00296368 0 229934
-0.000353929 0.0037557 0 3888.81
0.00136689 0.00417221 0 6553.15
0.000288631 0.0043673 0 2243.19
-0.000116817 0.00316526 0 27692.3
0.000228982 0.00477361 0 1576.79
-0.00010849 0.00292752 0 256627
0.00158742 0.0252298 0 744.167
0.00029744 0.00214644 0 307479
0.00012001 0.0179918 0 2639.32
-2.8464e-005 0.00302556 0 166435
-0.000121369 0.00301027 0 4314.16
-0.000613293 0.003423 0 2530.35
0.000416492 0.000739339 0 318808
0.00607599 0.0132862 0 31.6913
-0.000118426 0.00301015 0 4288.48
0.000338231 0.0030745 0 5362.73
-0.000760719 0.00047075 0 335581
-0.000159712 0.00339978 0 11802.1
0.00621185 0.0259584 0 91.9693
-0.000407926 0.00403608 0 2694.25
5.21801e-005 0.0048277 0 1583.89
0.00820777 0.0174274 0 26.2477
-0.000651027 0.00328042 0 6067.35
-8.91944e-005 0.00296269 0 236919
-0.000640908 0.0223311 0 1193.32
0.00498206 0.0148716 0 53.1701
-0.000133404 0.00280466 0 282192
-0.00284514 0.0101497 0 2619.57
0.00015129 0.00247549 0 300882
0.0036537 0.0164932 0 226.676
0.000170347 0.00269813 0 293042
-0.00192463 0.00759706 0 2679.35
-0.00146113 0.00452985 0 5488.51
0.00164564 0.0109866 0 1476.82
0.00153691 0.0307746 0 468.608
0.000402223 0.00321336 0 3039.1
-0.000561587 0.00118082 0 315236
-0.00107178 0.00734408 0 431.954
-4.6988e-005 0.00292472 0 246955
0.000121356 0.00262665 0 294898
-0.00180667 0.021881 0 905.089
-0.000301986 0.0030856 0 4552.8
-0.000116548 0.00289513 0 266814
0.000683718 0.0116885 0 809.158
-0.000354426 0.00170815 0 310633
0.000168525 0.00302989 0 3588.16
0.0016288 0.00554363 0 3597.03
-0.000454254 0.00780077 0 396.177
9.99188e-005 0.00299126 0 214120
-0.000923631 0.00351832 0 7750.84
-0.000513771 0.00531417 0 986.619
-0.000134682 0.0174176 0 2640.24
0.000245462 0.00302872 0 4641.07
-0.00010594 0.00296983 0 235894
0.000263028 0.00390471 0 3924.83
0.000668464 0.00324245 0 7628.66
-0.00016736 0.00267447 0 294029
9.47415e-005 0.00371123 0 6306.67
0.00421743 0.0282356 0 437.531
0.000517536 0.00330043 0 2706.39
7.86006e-005 0.00301308 0 150847
-0.00150253 0.0233222 0 928.457
3.50244e-005 0.00343033 0 14299.1
0.00521285 0.0268086 0 291.36
-2.25255e-005 0.00298419 0 209509
0.000210866 0.0048041 0 1529.76
-0.00060708 0.0165096 0 1884.12
0.00212885 0.0061951 0 4144.26
-2.66592e-005 0.00312601 0 73596.1
-0.00828018 0.0153779 0 39.5548
-0.00170476 0.0244237 0 779.609
-2.90915e-005 0.00298341 0 210276
-0.00185381 0.0061466 0 3662.98
3.45393e-006 0.00277635 0 280078
0.00147734 0.00677235 0 1578.99
0.00789347 0.0314466 0 196.853
-0.00613399 0.0273266 0 137.02
6.50073e-005 0.00218408 0 305501
-0.00147779 0.0231807 0 919.138
-0.000188401 0.00264524 0 296139
-0.00075172 0.0114273 0 810.173
0.00122718 0.0181316 0 812.893
-0.000212778 0.0261997 0 726.509
-0.000849183 0.00348376 0 6626.47
0.00262104 0.0134155 0 1014.26
1.27232e-005 0.00293823 0 238210
0.000154311 0.000143575 0 545701
0.00227939 0.00864795 0 2579.23
-0.000341661 0.00336084 0 5187.67
-0.00187213 0.00737965 0 2633.91
-0.000325102 0.00324186 0 4879.04
0.00106283 0.00405371 0 2952.57
0.00306202 0.0160229 0 368.889
-0.00125502 0.0209796 0 1161.35
-0.000371653 0.00205944 0 308728
-6.26965e-005 0.00321945 0 33411.9
0.00162374 0.026075 0 691.457
2.10167e-006 0.00278249 0 279124
-0.0055484 0.0286456 0 296.334
0.00015094 0.0013019 0 311548
0.000698722 0.0033001 0 7012.67
-0.000209116 0.00313022 0 8011.27
0.000178301 0.00263421 0 296191
-0.000170601 0.00241911 0 302571
6.51233e-005 0.00278293 0 280589
0.000796117 0.00012178 0 386427
-0.00585119 0.020535 0 82.893
-0.000609924 0.00122633 0 314993
-0.000102624 0.00304973 0 42424.3
0.00514232 0.0257801 0 169.721
-0.00828702 0.0225688 0 42.8538
-0.000614799 0.00344241 0 2415.55
-0.00151189 0.0188183 0 652.136
-3.25492e-005 0.0029848 0 209047
0.00054607 0.027935 0 570.449
-0.000162612 0.00307065 0 8951.61
0.00170386 0.00536783 0 4296.87
0.000122657 0.00246052 0 300941
0.000114118 0.00372299 0 6045.61
0.000279019 0.00175174 0 309865
-0.00259204 0.0130168 0 1378.67
0.0051502 0.0128645 0 21.6768
-9.8562e-005 0.00342344 0 12547.6
-0.000685127 0.00529569 0 990.205
-0.000466511 0.00313725 0 5875.6
0.000190709 0.00268308 0 294537
0.000395417 0.00366064 0 3959.2
0.000169582 0.00301879 0 3729.37
-0.00265958 0.00992127 0 2627.69
-0.00519759 0.0137459 0 27.4129
-0.000114222 0.00289247 0 267019
2.13384e-005 0.00287136 0 262803
0.000112396 0.0030073 0 4413.4
-0.000364131 0.0125976 0 696.895
0.000638801 0.0281464 0 572.597
-7.63196e-005 0.00301224 0 153439
0.00647815 0.0133628 0 40.5268
0.000321473 0.00338261 0 5792.74
-0.00275906 0.0101546 0 2648.6
-0.00198739 0.00761012 0 2710.08
-0.00766429 0.0300439 0 153.788
-0.000176722 0.00312882 0 12286.3
-0.00800327 0.0218525 0 45.1356
0.00020237 0.00307009 0 4484.7
-0.000414328 0.00346374 0 3962.08
-0.000653425 0.00100717 0 318157
0.000805931 0.0226935 0 1149.13
5.17832e-005 0.00318251 0 43190.2
0.000302933 0.0020752 0 308009
4.75096e-005 0.00289494 0 257540
-9.22855e-005 0.00259343 0 295635
-0.00177752 0.00488612 0 5676.02
8.64111e-005 0.00297279 0 228517