# T  FACE_DATA 23640
#  x  y  z  T
-0.00296834 0.0159323 0 84.555
0.000794309 0.0100339 0 68.9309
0.00690979 0.0130745 0 248.291
0.000158008 0.0018211 0 285.115
-0.000662165 0.0113619 0 80.6934
-0.00203768 0.00587959 0 157.037
-0.000220137 0.00748479 0 69.4541
0.00214531 0.0125841 0 108.715
-0.00164167 0.00702341 0 106.792
0.00020958 0.00306993 0 124.915
4.59799e-005 0.00273939 0 271.02
0.00075606 0.00524313 0 81.3588
0.00107075 0.0257944 0 79.7959
-0.000458708 0.0115994 0 73.8445
-0.000900467 0.00350322 0 170.677
-0.00222355 0.00655891 0 155.53
0.00442703 0.0182294 0 79.1352
7.09705e-005 0.00299924 0 246.729
-2.45517e-005 0.00292714 0 261.528
-0.000543852 0.00394831 0 100.984
7.98376e-005 0.00283498 0 268.11
0.00510868 0.0124654 0 174.104
7.37866e-005 0.00284217 0 267.745
-0.000122136 0.00287943 0 267.414
0.00117211 0.0120328 0 89.6663
0.000340217 0.00636002 0 76.1971
-1.62375e-005 0.00331413 0 156.648
0.000288499 0.00391811 0 108.392
0.00604323 0.0215883 0 67.374
0.0015748 0.0199438 0 89.7198
0.000642306 0.0286533 0 74.9494
-0.000788091 0.000235815 0 299.84
8.45076e-005 0.00283429 0 268.186
-0.000766033 0.00453527 0 88.0407
-0.000556446 0.00360452 0 103.707
-0.000694613 0.00330261 0 163.99
0.00425461 0.0181246 0 79.8177
0.00563158 0.0299784 0 70.7156
0.00374311 0.0125452 0 121.677
-0.000168184 0.00269727 0 272.494
0.00100487 0.00483203 0 83.0142
-0.00170325 0.00704586 0 107.306
-0.00047461 0.0123053 0 80.4952
-0.00401905 0.0129379 0 107.731
0.000128446 0.00148328 0 290.716
0.000108141 0.00315803 0 172.337
0.00299545 0.0176096 0 81.3015
0.00122698 0.00708374 0 73.4728
0.000214903 0.00307399 0 124.209
0.00225142 0.0126586 0 115.023
0.000204708 0.00068009 0 299.551
4.25297e-005 0.00299727 0 248.888
-0.000477288 0.00315875 0 158.309
-0.00378992 0.02149 0 67.7629
0.000139812 0.00181138 0 285.302
0.000208917 0.00302796 0 201.207
-0.00160791 0.0049468 0 128.263
0.000941143 0.00995448 0 77.5333
8.9442e-006 0.010956 0 59.1389
-0.000434056 0.00133506 0 292.105
0.000566946 0.0289715 0 74.1138
-7.40414e-005 0.003214 0 169.445
-0.000145493 0.00239699 0 276.799
3.42483e-005 0.00298986 0 251.188
0.000575544 0.00987125 0 61.0896
3.71363e-005 0.00299095 0 250.865
-0.00247102 0.00772987 0 158.99
0.00096928 0.0118325 0 86.4878
-9.22697e-005 0.00299969 0 242.104
-0.000570617 0.0122505 0 82.4117
-0.000211411 0.00254812 0 274.719
-0.000765289 0.00457715 0 87.3038
8.13068e-005 0.00294139 0 261.296
-0.00437678 0.0203082 0 71.1398
0.00226862 0.00661101 0 152.96
-0.000832194 0.000220534 0 299.746
-0.000164868 0.00301134 0 202.054
0.0012393 0.0259768 0 79.0707
-2.48279e-005 0.00292318 0 261.932
0.000116572 0.00245177 0 276.059
9.77655e-005 0.00313112 0 180.194
0.000279024 0.00328636 0 128.318
-5.75605e-005 0.0116355 0 59.9215
-7.47936e-005 0.0117342 0 60.1815
0.000518168 0.00993111 0 60.8638
-0.000154608 0.0030256 0 153.166
4.53443e-005 0.00299839 0 248.452
-0.000161071 0.0027724 0 271.254
0.000104836 0.00293916 0 263.291
-0.00100104 0.00361077 0 169.352
-0.000510005 0.00921774 0 63.2319
0.00100295 0.0100141 0 83.3199
-0.000646084 0.00336418 0 122.458
6.96906e-005 0.00293287 0 261.742
-1.67264e-005 0.00300289 0 247.756
0.000173509 0.0227352 0 89.7114
3.17037e-005 0.00298455 0 252.5
0.000312244 0.00306502 0 185.06
-0.00212604 0.00906512 0 106.373
-0.00049218 0.00322389 0 125.731
0.000341345 0.00323843 0 118.811
-0.00385942 0.0216496 0 67.7304
-0.000125834 0.0028813 0 267.665
0.00524627 0.0255212 0 65.3916
0.000713781 0.0036837 0 96.5266
0.00601727 0.0299149 0 71.4139
-0.000344095 0.00203632 0 281.374
-0.0047341 0.0239481 0 64.0601
-0.000460773 0.00539436 0 82.2551
-0.00196148 0.00905338 0 103.673
0.00143807 0.0303782 0 71.8966
7.94637e-005 0.00293894 0 261.483
0.00013473 0.00481908 0 90.895
0.00105264 0.00484794 0 82.412
0.000112877 0.0030262 0 161.8
-0.00781161 0.0282885 0 58.2149
-0.000846622 0.00344471 0 168.279
-0.00206201 0.0306837 0 71.1953
-0.00313594 0.0160362 0 84.6047
0.00144289 0.0198776 0 90.8236
-0.000135136 0.00286502 0 268.703
-0.000205101 0.000950881 0 297.97
0.000372212 0.00308853 0 198.402
0.000370404 0.000795868 0 298.812
0.000201681 0.00347815 0 129.858
-0.000147808 0.00278598 0 270.71
0.000218103 0.000637733 0 299.661
0.000195722 0.00313377 0 139.921
-0.00203813 0.00594128 0 151.003
0.00112067 0.00510142 0 79.927
5.16573e-005 0.00373385 0 120.544
0.000381501 0.00336875 0 116.633
0.000860715 0.0258401 0 80.7968
-0.000116556 0.00339842 0 140.916
-0.00513668 0.0257477 0 66.8182
-0.000162894 0.00277847 0 271.262
8.27341e-005 0.00277738 0 270.076
0.0010674 0.0118759 0 88.2966
-4.09992e-005 0.00275121 0 270.694
3.29665e-005 0.00297369 0 254.864
-0.00204547 0.0090065 0 105.291
-0.00160474 0.0048986 0 131.284
8.25825e-005 0.00294819 0 260.586
4.00473e-005 0.00273627 0 271.096
-9.41642e-005 0.00295571 0 260.665
0.00150619 0.00997327 0 95.3467
8.22134e-005 0.00268838 0 272.24
-0.000160791 0.00267895 0 272.653
-0.000596112 0.00909085 0 63.4565
-9.31423e-005 0.00299701 0 248.732
0.00235681 0.0126226 0 119.37
0.00203765 0.00557212 0 171.187
-0.000165794 0.0115731 0 61.1633
6.0159e-005 0.0021996 0 279.565
0.000371981 0.00362464 0 113.643
-0.00733688 0.029685 0 68.111
-0.000180414 0.00743151 0 69.483
-0.000357207 0.004885 0 88.4774
0.00253943 0.00813968 0 150.321
-1.29377e-005 0.00332967 0 154.994
-0.0010235 0.00361199 0 180.168
-0.000285329 0.0030748 0 145.622
-0.000681311 0.00329291 0 165.163
-0.00260727 0.00895038 0 145.066
0.00788717 0.0276195 0 60.4947
0.0089704 0.0287411 0 57.9721
-0.000270534 0.00232157 0 277.596
-0.00014416 0.00312601 0 159.618
-0.000337662 0.00201762 0 281.649
0.0003962 0.00337513 0 115.892
0.00121317 0.00701782 0 73.2881
0.000116206 0.00302915 0 158.819
0.00225197 0.00666935 0 150.041
-0.000507665 0.00548922 0 81.245
-0.000231863 0.00226746 0 278.39
0.000244361 0.00226851 0 278.404
0.00111028 0.00505498 0 80.163
0.000121223 0.00304184 0 160.312
0.00012049 0.00243938 0 276.237
-0.0013386 0.0186068 0 86.2689
0.000102064 0.00149733 0 290.524
0.000147362 0.00301363 0 171.493
0.00106981 0.0119939 0 88.1326
-0.000365953 0.00411169 0 101.966
0.00557444 0.020358 0 72.3249
4.86089e-005 0.00307386 0 214.395
-0.000177413 0.0035472 0 127.158
-0.000632994 0.00339325 0 111.361
0.000487307 0.00130985 0 292.223
-0.000349424 0.00402777 0 104.784
-0.00177251 0.00629586 0 113.268
-7.92525e-005 0.00273084 0 271.294
0.000241714 0.00100077 0 297.393
-0.000154516 0.0114773 0 60.9476
0.00502442 0.0222916 0 68.3736
-0.000166546 0.00272686 0 272.031
0.000707598 0.00365891 0 96.6851
-0.00157418 0.0046046 0 153.844
0.000122725 0.00301099 0 143.219
0.000172305 0.00324558 0 148.24
7.46185e-006 0.00286175 0 266.427
0.00533293 0.0140838 0 94.4867
0.00520504 0.0284215 0 73.5753
-0.00170266 0.00713636 0 106.975
4.38765e-005 0.00290514 0 263.75
0.00035679 0.0099507 0 60.6061
0.000120447 0.00300871 0 144.756
7.85992e-005 0.00284146 0 267.826
0.000146556 0.00306157 0 146.684
-0.000265484 0.00230758 0 277.823
-0.000558184 0.0114136 0 76.507
0.000873988 0.011905 0 85.6793
0.00195145 0.0157285 0 90.7317
0.000415959 0.00988952 0 60.7387
0.00204861 0.00551694 0 175.233
0.00159497 0.00893937 0 98.955
0.00125366 0.00690066 0 76.1841
-0.000537482 0.00397822 0 100.603
-0.00245206 0.00890865 0 129.891
-0.00591638 0.015069 0 82.1065
0.00182541 0.0157696 0 89.6283
-6.39179e-005 0.00274368 0 270.907
1.24162e-005 0.00286011 0 266.527
0.000785526 0.00520879 0 81.6258
0.000119132 0.00288179 0 267.077
0.000107617 0.00492998 0 89.7239
-0.000398708 0.00617064 0 75.9641
-0.00031795 0.000861625 0 298.529
-0.0054742 0.0145195 0 87.4797
-0.00050603 0.0093045 0 63.2731
-0.00281713 0.0160093 0 84.3091
-0.00521587 0.0225645 0 66.2819
0.000631138 0.00410172 0 96.0788
0.00077675 0.0118594 0 84.3762
-0.000339893 0.00491785 0 88.2922
0.000278502 0.0033019 0 128.159
-0.000206291 0.0025551 0 274.601
0.0015782 0.00885327 0 98.9724
-0.000601058 0.00917374 0 63.4584
0.000107852 0.00308374 0 182.459
0.000329157 0.00324408 0 121.163
-0.000107456 0.0030138 0 167.953
0.000995869 0.00478803 0 83.4542
-0.00176263 0.00715431 0 107.579
0.000133123 0.00190024 0 283.908
0.00428452 0.0222831 0 69.5533
0.00249322 0.0134845 0 109.128
0.000209201 0.00303326 0 177.608
1.124e-005 0.00241342 0 276.638
-0.000138897 0.00282521 0 269.732
-0.000422518 0.00130967 0 292.599
0.000897928 0.00602889 0 76.2938
0.00296246 0.0177704 0 81.7837
-0.000240922 0.0022558 0 278.529
0.000161456 0.0106342 0 59.3759
-0.000169117 0.00269067 0 272.609
-0.00600599 0.0132277 0 203.211
-0.00498542 0.0226529 0 65.8375
0.00035646 0.00189436 0 283.494
0.000360867 0.00193124 0 282.966
0.000188008 0.00159518 0 288.741
0.00315697 0.0294361 0 72.8893
0.000380728 0.00331446 0 115.967
-0.000407732 0.00541329 0 82.5128
0.00599218 0.0187772 0 73.0329
-0.000475668 0.0124289 0 81.0276
9.243e-005 0.00339173 0 144.274
-0.0022067 0.00902531 0 110.206
0.000138287 0.010546 0 59.4268
-4.59787e-005 0.00300592 0 245.528
0.000475334 0.00325723 0 110.12
0.0081269 0.0233608 0 63.0429
-0.000136448 0.00286953 0 268.981
0.000465099 0.00132931 0 292.022
0.000196949 0.00312437 0 138.935
-0.000725979 0.00459524 0 88.6003
0.00566025 0.0201173 0 72.725
-0.000237093 0.000937504 0 298.044
-7.15727e-006 0.00298867 0 251.573
-0.000556128 0.00552312 0 80.6439
-0.000151452 0.00278159 0 270.846
0.00604583 0.0167381 0 74.0157
5.44524e-005 0.00307484 0 212.439
3.5211e-005 0.00270778 0 271.757
-0.00210731 0.0068781 0 123.146
8.91266e-005 0.00319599 0 171.124
-0.00242079 0.00974735 0 121.508
0.00135885 0.00413507 0 166.173
-0.00108228 0.00797081 0 67.7284
3.29303e-005 0.00271504 0 271.591
-0.000508078 0.0208168 0 96.6344
-0.00472826 0.0198065 0 72.0575
0.00152826 0.0090827 0 97.2271
-0.00252462 0.00897287 0 133.849
-4.09377e-005 0.0027578 0 270.51
-0.00186927 0.0116808 0 97.4979
0.00108447 0.00518193 0 80.0471
-0.00419392 0.0202211 0 71.5685
0.000296615 0.00594885 0 79.0867
0.00365557 0.0156923 0 86.631
-0.000138643 0.00311989 0 162.358
3.44704e-005 0.00298593 0 252.154
-0.000249911 0.000891772 0 298.41
0.00110337 0.0099601 0 87.9945
8.04689e-005 0.00279643 0 269.479
0.00779157 0.0249956 0 62.1197
0.000351464 0.00337107 0 119.468
-0.00012879 0.00323538 0 157.035
0.000155895 0.00168996 0 287.255
8.56943e-005 0.00294739 0 260.877
0.0053023 0.0238774 0 65.517
0.000238423 0.00318026 0 134.021
0.000230406 0.00226533 0 278.469
-5.15866e-005 0.00292996 0 261.582
2.57476e-005 0.00286927 0 266.046
0.000105066 0.00340141 0 142.343
-0.0006343 0.00341198 0 108.99
-0.00683177 0.0130924 0 248.953
-1.54609e-005 0.00299907 0 248.844
-0.00215958 0.00656839 0 142.33
0.00301179 0.0141363 0 99.7012
-0.000723924 0.00463742 0 88.1113
-0.000555458 0.00358088 0 104.428
0.000287933 0.00394954 0 107.335
-0.00525881 0.0259389 0 66.8247
-0.000235386 0.00314485 0 131.52
-0.000664883 0.00104525 0 294.849
0.00182857 0.0107598 0 99.1819
0.00289308 0.0133881 0 113.741
0.000556851 0.000459359 0 299.787
-6.31462e-005 0.00306344 0 213.429
0.00204396 0.0126442 0 105.182
-0.000369072 0.00408052 0 102.992
-0.00018247 0.00378321 0 114.726
0.000579156 0.0162179 0 99.2171
0.00117061 0.0100074 0 89.3548
0.000129771 0.00301154 0 148.745
0.00050022 0.00329429 0 107.743
-0.00194273 0.0117557 0 98.5471
0.000295066 0.00600891 0 78.9149
-0.000154748 0.0030213 0 163.533
8.51353e-005 0.00297491 0 256.615
0.000370749 0.00364798 0 112.78
0.00032381 0.000892659 0 298.217
-0.000114683 0.00273658 0 271.279
7.10543e-005 0.0030026 0 245.1
-9.6647e-005 0.00324264 0 161.27
0.000733896 0.00537107 0 81.5626
0.000155197 0.00494735 0 88.8232
0.000610019 0.00412319 0 96.5518
0.000353717 0.00194986 0 282.7
-0.000244432 0.00314026 0 128.91
-0.00502653 0.0232658 0 65.1034
-0.00178789 0.0309983 0 70.8289
-0.000579723 0.00361754 0 102.833
0.00813841 0.0273314 0 60.2972
-0.002496 0.0131044 0 115.928
-0.00431729 0.0290645 0 71.8609
-0.000157683 0.00240005 0 276.729
-6.09633e-005 0.00273787 0 271.079
-0.000172602 0.00356894 0 125.764
5.95493e-005 0.00280503 0 269.077
3.59382e-005 0.00297531 0 254.55
0.0038221 0.0156522 0 87.6089
0.00151814 0.00899556 0 97.0518
0.00891208 0.0209237 0 61.501
0.00932881 0.0247628 0 62.0435
0.000401147 0.00319889 0 112.811
-1.37134e-005 0.00292236 0 261.951
-0.00149883 0.0199029 0 88.4943
-0.000151382 0.00307642 0 149.641
-9.99299e-005 0.00297786 0 258.782
0.00528439 0.0241343 0 65.3955
2.61097e-005 0.00286432 0 266.328
0.000206875 0.00349712 0 128.663
-0.00509797 0.0234717 0 64.8688
-0.000597722 0.000953511 0 296.419
-0.00793898 0.0155863 0 126.162
0.00183935 0.0106624 0 99.3651
7.52069e-005 0.00339368 0 145.037
-7.77056e-005 0.00294222 0 261.033
-9.8985e-005 0.00297992 0 258.651
0.00161823 0.00911669 0 99.0002
8.21842e-005 0.00297527 0 256.204
-0.00188133 0.00900925 0 103.289
-0.00617827 0.0275965 0 70.2366
-0.000490092 0.00321051 0 130.905
0.00945115 0.0288751 0 56.9934
-0.00016434 0.00272067 0 272.088
-0.00797941 0.0222445 0 64.4888
-4.01564e-005 0.00301654 0 241.986
-0.00180498 0.00506765 0 165.836
-0.000161305 0.00301261 0 199.697
-0.000482063 0.00316965 0 150.325
-0.000942791 0.00378901 0 114.931
-0.000134053 0.00282435 0 269.539
0.000242746 0.000963685 0 297.761
0.00525461 0.0274919 0 76.5602
0.00306352 0.0179257 0 81.0201
-0.000120066 0.00324295 0 157.543
-0.00319507 0.0125029 0 129.331
-0.000290892 0.00233844 0 277.51
0.00159844 0.00482417 0 135.667
0.00787978 0.0236538 0 64.0742
0.00145057 0.0259009 0 80.216
-0.000336257 0.00619409 0 76.4606
-0.000333917 0.00172186 0 286.259
0.00577509 0.0216659 0 68.4188
0.000667048 0.00332313 0 136.589
0.00248969 0.00807562 0 145.046
-0.00160944 0.00467215 0 155.759
1.98969e-005 0.00242157 0 276.524
0.000286635 0.0021356 0 280.14
-0.00161117 0.00618199 0 110.265
7.54635e-005 0.00268391 0 272.324
0.00101663 0.00497361 0 81.407
9.78423e-005 0.00320089 0 168.459
-0.000282098 0.0245537 0 83.6282
0.00160534 0.0053807 0 121.269
0.000645555 0.00426047 0 93.8646
0.000344665 0.00191282 0 283.241
-4.37224e-005 0.0030135 0 242.84
0.000410526 0.00592784 0 78.3778
-0.00161438 0.00462874 0 165.305
0.000197339 0.00307463 0 126.417
-0.00787948 0.0250527 0 60.5043
0.000365567 0.000836364 0 298.561
0.000428529 0.0031113 0 198.267
6.29689e-005 0.00280138 0 269.193
-0.00260928 0.0115127 0 131.209
0.00511854 0.0182191 0 75.3843
-0.000191506 0.0013612 0 292.554
0.000255298 0.00234631 0 277.397
7.80872e-005 0.00285378 0 267.298
-6.93966e-006 0.00361778 0 127.959
-0.000112834 0.00273034 0 271.405
-0.000151306 0.00308356 0 151.834
0.000794921 0.00339323 0 167.795
0.000120559 0.00308016 0 173.54
-0.00060963 0.000994212 0 295.781
-0.000187211 0.00375918 0 115.718
-0.000179749 0.00239602 0 276.753
0.000583853 0.00320912 0 181.883
-0.000220391 0.00307379 0 130.517
-3.20721e-005 0.00313154 0 197.302
-0.00240166 0.00829286 0 131.604
-0.000107553 0.0032363 0 160.439
0.000485775 0.00324734 0 113.149
-1.6528e-005 0.00283252 0 267.872
0.000388916 0.00319175 0 112.66
-0.000191501 0.000101552 0 299.998
-0.00244196 0.00780076 0 151.538
-0.000237142 0.00223825 0 278.783
-0.00179252 0.00511195 0 158.076
7.86645e-005 0.00300926 0 237.883
-0.00578012 0.0268724 0 67.629
-0.00101007 0.00801211 0 66.7931
0.000363332 0.00337974 0 119.183
0.000391279 0.00186159 0 283.899
0.000433244 0.00317308 0 126.684
0.00161612 0.00543442 0 120.634
-0.00207993 0.00693738 0 121.017
0.000483914 0.00474879 0 89.9525
0.000802557 6.40842e-005 0 299.999
0.00066144 0.00330597 0 142.597
0.00141767 0.0197289 0 90.559
-0.000651775 0.00329699 0 146.366
0.000282152 0.00304241 0 222.905
-0.000357054 0.00319624 0 115.927
-0.00178284 0.00623412 0 114.256
3.8992e-005 0.00380209 0 117.985
-0.00100109 0.0210667 0 93.5092
0.000165033 0.00158259 0 288.998
0.00864187 0.0174253 0 84.8847
0.00315453 0.0128329 0 114.965
-8.64597e-005 0.00318341 0 172.993
-0.000259494 0.0126492 0 77.7647
0.000466396 0.000355167 0 299.952
0.000246728 0.00318708 0 132.208
-0.000724122 0.000493878 0 299.13
-0.00236534 0.0089472 0 120.54
-0.00585899 0.0184819 0 73.5818
-0.000109395 0.00425783 0 101.329
-0.000225082 0.00307869 0 129.183
0.00116126 0.00383867 0 160.265
0.000146244 0.00305529 0 144.301
0.000106639 0.00285591 0 267.68
0.00516349 0.0142403 0 87.5155
-0.000547118 0.0281975 0 76.3384
-0.00314055 0.0188201 0 75.2752
6.39205e-005 0.0034062 0 144.045
0.000746714 0.00049437 0 298.909
0.00226648 0.0258744 0 78.557
-0.000137355 0.00283875 0 269.338
0.00173233 0.0108179 0 97.2072
-0.000334456 0.00625618 0 75.7827
-0.000652252 0.00338145 0 119.613
-6.89277e-005 0.00306466 0 210.7
0.000126795 0.00304178 0 152.741
0.00478399 0.0277755 0 75.0512
0.000516287 0.0229306 0 88.9184
5.89116e-005 0.00254342 0 274.759
-0.00795861 0.0246948 0 61.0871
0.00133689 0.00999394 0 92.4567
-0.000118825 0.0220921 0 92.6903
6.34909e-005 0.0107046 0 59.2638
-0.000946741 0.00381309 0 115.274
0.00581241 0.0241952 0 64.9101
-0.00487736 0.01991 0 71.783
0.00170829 0.0256098 0 80.8924
9.98067e-005 0.00316224 0 173.912
0.00308063 0.0142797 0 99.4601
-0.000279242 0.00307977 0 137.212
-0.000183934 0.00303725 0 144.345
7.83288e-005 0.00286324 0 266.812
-0.000440884 0.00514493 0 84.1496
0.000455558 0.00477565 0 89.6721
0.00520625 0.0221693 0 69.0183
-0.00179507 0.00722781 0 107.822
5.54873e-005 0.00266826 0 272.62
-0.00157971 0.00456195 0 162.662
4.18607e-005 0.00302762 0 237.271
-0.000194972 5.19224e-005 0 299.999
-0.000846289 0.00342394 0 181.895
-0.00105965 0.00823661 0 68.0375
0.000163413 0.00479131 0 91.1674
-8.2874e-005 0.00288534 0 265.732
0.00157378 0.00552232 0 117.003
-7.66839e-005 0.00293931 0 261.323
0.000101978 0.0109948 0 58.8566
-0.000363872 0.00601296 0 77.0224
0.000117978 0.00287815 0 267.166
0.000219153 0.00318835 0 136.968
-0.00163196 0.00449872 0 190.637
-0.000221409 0.00303399 0 188.223
-0.000370966 0.0244074 0 84.3921
-0.000466554 0.00315829 0 152.171
0.000396164 0.00331941 0 114.202
-0.00482666 0.0238063 0 64.5244
0.00133411 0.00522841 0 100.371
-0.00267568 0.00982141 0 149.866
-0.000480207 0.0219659 0 92.5689
0.00177473 0.0106071 0 98.3249
0.000428512 0.00597987 0 78.3312
0.00330832 0.0202369 0 72.8113
-0.00036699 0.012473 0 78.9428
-0.000901486 0.00347959 0 183.379
-9.70158e-005 0.00294708 0 261.781
-0.00110466 0.0144253 0 89.7154
-0.00107199 0.0143087 0 89.4082
0.000113095 0.0030798 0 179.767
0.000776547 0.0117402 0 84.0133
-0.000196596 0.00302496 0 193.248
-0.00581483 0.0148124 0 84.095
0.000125326 0.00308478 0 170.908
-0.00172589 0.0230235 0 85.8553
-0.00123798 0.0114294 0 91.1676
-0.000106038 0.00301072 0 167.722
7.68012e-005 0.00277918 0 269.995
-0.000218387 0.00226751 0 278.408
0.00288382 0.0120736 0 160.969
0.000136685 0.00272066 0 271.791
0.00126396 0.00994364 0 91.4612
0.000169734 0.00323168 0 149.563
3.33298e-005 0.00296283 0 256.882
7.38909e-005 0.00285244 0 267.302
0.00226662 0.00684142 0 143.993
-4.80444e-005 0.00288948 0 264.94
0.000117291 0.00304527 0 167.525
0.00044057 0.00316393 0 133.743
0.00025781 0.000139806 0 299.997
-0.000553437 0.0115383 0 77.6728
0.00174054 0.0109254 0 97.1086
-0.00657824 0.0304887 0 68.5629
-0.00287878 0.0309438 0 70.5904
-1.74214e-005 0.00292383 0 261.821
0.000417861 0.00311152 0 186.655
-0.000158816 0.00302837 0 148.245
0.000540608 0.00339996 0 104.755
0.00322243 0.0179545 0 79.7346
-0.000159371 0.0013528 0 292.752
0.000126077 0.0159893 0 105.61
-0.00432652 0.0294311 0 71.5991
0.0015673 0.00546801 0 117.175
-5.0904e-005 0.00292621 0 261.955
-0.000106737 0.00293051 0 264.132
0.00275932 0.0110589 0 145.551
0.000556951 0.00340784 0 103.901
0.000399007 0.0063813 0 75.5073
-4.55764e-005 0.00288684 0 265.085
5.78688e-005 0.00240298 0 276.767
-0.00135948 0.0128543 0 91.8594
0.00105587 0.00489705 0 81.4099
-0.00180772 0.00736401 0 108.444
8.62884e-005 0.0107917 0 59.2689
-1.73838e-005 0.00299616 0 249.646
-0.000559779 0.00402893 0 98.6639
-0.000129894 0.00339006 0 140.394
-0.00108645 0.0209701 0 93.8541
-0.000355289 0.00318516 0 116.882
6.75287e-005 0.00268766 0 272.231
-1.6399e-005 0.00282695 0 268.111
0.000375645 0.00184967 0 284.189
0.000226595 0.00318087 0 136.368
-0.00157723 0.0197887 0 86.6165
0.000153682 0.00302297 0 144.174
-0.000983791 0.00376429 0 124.229
0.00320404 0.0139037 0 104.649
-0.000399729 0.0051532 0 85.3325
-8.43671e-005 0.0028893 0 265.522
0.00153091 0.0204307 0 91.3897
0.0023948 0.0125217 0 119.358
0.000662239 0.00525468 0 82.9179
-0.00103759 0.0179087 0 91.6578
-0.00194218 0.00558429 0 151.735
-0.000960129 0.00376594 0 120.736
-0.000309837 0.00306474 0 189.808
0.00162461 0.00920594 0 98.9521
0.00346181 0.0203111 0 72.6328
0.000412094 0.000782235 0 298.82
4.10836e-005 0.00290739 0 263.523
0.00107752 0.00513333 0 80.0541
-0.00139776 0.00696247 0 88.9821
5.83714e-005 0.0023895 0 276.956
0.000501828 0.0119171 0 79.6189
-2.97555e-005 0.00300349 0 247.23
0.00113092 0.00612109 0 73.9375
3.11664e-005 0.00285722 0 266.728
-0.000756348 0.0223669 0 90.2771
0.000606022 0.00322532 0 180.152
0.00858419 0.0213223 0 62.272
0.00228739 0.00873166 0 118.584
-0.00330691 0.0124678 0 120.913
-0.00135503 0.018735 0 86.8667
-0.00782909 0.0173425 0 72.0164
0.000179373 0.00168518 0 287.302
0.000181353 0.0228576 0 89.5971
0.00116853 0.00608209 0 74.0979
0.00534216 0.0272787 0 76.9972
0.000808836 0.00340365 0 168.478
-0.00176706 0.00728799 0 108.022
0.000366125 0.00308127 0 207.611
0.000142062 0.00271694 0 271.903
0.000456136 0.0264018 0 79.8182
0.000149779 0.00301624 0 166.312
8.09965e-005 0.015903 0 105.607
3.07264e-005 0.00286231 0 266.455
-0.000148146 0.00339011 0 139.518
-0.0064378 0.0277565 0 68.6865
0.00072806 0.00532362 0 81.6116
-0.00065633 0.00335203 0 128.527
-0.000360464 0.000878987 0 298.303
-9.67537e-005 0.00295742 0 260.769
-0.000484113 0.00948683 0 62.604
-0.000565445 0.00399845 0 99.5403
0.000588623 0.00111811 0 294.257
0.000130395 0.00304539 0 152.62
0.000107754 0.00285149 0 267.87
0.00165731 0.0250536 0 81.3203
0.00285988 0.0119675 0 162.78
-9.54028e-005 0.00428588 0 100.856
-0.000124414 0.00317156 0 165.278
-0.00814733 0.0285856 0 58.3457
-0.000216377 0.0031251 0 134.194
0.00549751 0.012219 0 201.323
-0.00550796 0.012201 0 232.069
0.00287309 0.0132504 0 115.409
0.000396043 0.00090361 0 297.942
-9.96587e-005 0.00294535 0 262.241
-0.00215947 0.00674928 0 132.803
-0.000289559 0.000893856 0 298.328
0.00184728 0.00894591 0 103.377
-0.000404895 0.00611192 0 76.4624
-0.00085135 0.00350535 0 142.236
3.34633e-006 0.00298331 0 252.806
0.00378526 0.0199019 0 74.3296
-0.000528492 0.024373 0 85.1628
-0.000842118 0.0116133 0 85.6861
-0.00298148 0.0188909 0 74.7057
5.9556e-005 0.0025331 0 274.918
-0.000468824 0.00121303 0 293.813
9.1581e-005 0.0171817 0 108.52
-0.00127026 0.0113439 0 91.6986
0.00402234 0.0130084 0 100.895
-0.000363163 0.00496329 0 86.9411
-0.00609252 0.0268039 0 65.9396
0.000283831 0.00172705 0 286.385
-0.000884834 0.00452052 0 86.3672
0.000104251 0.00312707 0 178.657
0.00028648 0.000908897 0 298.165
0.00627587 0.0218045 0 66.913
0.000138189 0.00301242 0 162.06
-8.45766e-005 0.00300744 0 235.911
-0.000367296 0.0115469 0 67.6136
4.43738e-005 0.00303088 0 235.398
0.00481648 0.0179238 0 77.1597
0.00149749 0.00436073 0 167.806
0.00128386 0.00510424 0 90.9174
-0.000137123 0.00279496 0 270.234
0.00010392 0.0048879 0 89.9732
-0.00091848 7.16259e-005 0 299.972
3.54985e-006 0.00298714 0 251.951
0.000749152 0.00426831 0 91.3302
-0.000130195 0.00286367 0 268.33
0.00513916 0.0264131 0 77.4098
-0.00145383 0.00693267 0 96.9792
-0.000170314 0.00271408 0 272.311
0.000708754 0.00344963 0 115.445
0.000173403 0.0026398 0 273.403
0.00102924 0.00397184 0 114.901
7.04719e-005 0.00292897 0 262.155
-0.000154347 0.00277069 0 271.13
0.000152777 0.00306484 0 144.169
-0.0057264 0.0155753 0 77.1307
-0.00516063 0.0124211 0 221.051
-0.000727401 0.00332353 0 171.295
0.00177507 0.00499121 0 158.805
-0.00104148 0.00729487 0 68.4389
8.03056e-005 0.00285902 0 267.037
0.000619507 0.00322392 0 192.091
0.000491741 0.00344599 0 107.39
-8.64345e-005 0.00319528 0 170.919
0.000495863 0.00327729 0 109.382
0.00629165 0.0165428 0 70.7384
-0.000348261 0.00373379 0 110.572
0.00695359 0.012557 0 272.857
-0.00614658 0.0186042 0 72.7198
0.00446424 0.0221677 0 69.0763
-0.000789844 0.00391708 0 93.1741
0.000117774 0.00196522 0 282.915
-0.000255362 0.0148691 0 100.962
-0.00503812 0.0284552 0 71.8779
-0.000107009 0.00253653 0 274.867
0.000146628 0.00274959 0 271.339
0.00773255 0.0309094 0 69.6846
0.000159147 0.00499252 0 88.5603
0.000514649 0.00313677 0 224.675
0.00101358 0.00492618 0 81.5674
-0.00010231 0.00251506 0 275.173
-0.000149253 0.0149017 0 103.814
-0.0026764 0.0106555 0 140.176
-0.000401914 0.00497223 0 86.2813
-9.9778e-005 0.00250395 0 275.347
-0.000167489 0.00307565 0 142.584
0.00547148 0.0254757 0 63.9878
6.86885e-005 0.00304125 0 220.897
-0.00443178 0.028435 0 72.226
-9.60567e-005 0.00299261 0 255.235
0.00605816 0.0243911 0 64.274
-0.00166852 0.0218177 0 88.513
3.51271e-005 0.00306949 0 219.415
0.00934401 0.0252145 0 61.3239
0.000689131 0.0161709 0 93.9801
-0.00185288 0.0231304 0 85.1266
-0.000635695 0.0147353 0 87.2249
0.000424951 0.000378919 0 299.945
3.11571e-005 0.00341221 0 144.177
-0.00451594 0.0239154 0 63.3607
4.55634e-005 0.00300278 0 247.017
-0.000190882 0.0026229 0 273.735
-0.00293428 0.0314144 0 70.6364
0.000192455 0.0109275 0 58.866
-7.99306e-005 0.00301235 0 233.599
-0.000103784 0.019352 0 104.185
0.000298059 0.00179298 0 285.264
0.000318272 0.00306073 0 200.606
4.79498e-005 0.00267219 0 272.552
0.000550505 0.00439983 0 93.3016
-6.64966e-005 0.00296368 0 257.527
-0.000353929 0.0037557 0 110.469
0.00136689 0.00417221 0 158.319
0.000288631 0.0043673 0 98.2385
-0.000116817 0.00316526 0 168.08
0.000228982 0.00477361 0 90.8689
-0.00010849 0.00292752 0 264.627
0.00158742 0.0252298 0 81.1997
0.00029744 0.00214644 0 279.92
0.00012001 0.0179918 0 108.819
-2.8464e-005 0.00302556 0 239.646
-0.000121369 0.00301027 0 155.039
-0.000613293 0.003423 0 105.825
0.000416492 0.000739339 0 299.051
0.00607599 0.0132862 0 188.679
-0.000118426 0.00301015 0 151.173
0.000338231 0.0030745 0 189.898
-0.000760719 0.00047075 0 299.042
-0.000159712 0.00339978 0 138.147
0.00621185 0.0259584 0 62.5874
-0.000407926 0.00403608 0 101.983
5.21801e-005 0.0048277 0 91.3594
0.00820777 0.0174274 0 74.874
-0.000651027 0.00328042 0 155.256
-8.91944e-005 0.00296269 0 259.348
-0.000640908 0.0223311 0 90.8601
0.00498206 0.0148716 0 82.153
-0.000133404 0.00280466 0 269.889
-0.00284514 0.0101497 0 171.935
0.00015129 0.00247549 0 275.716
0.0036537 0.0164932 0 85.7773
0.000170347 0.00269813 0 272.594
-0.00192463 0.00759706 0 109.261
-0.00146113 0.00452985 0 133.951
0.00164564 0.0109866 0 95.9442
0.00153691 0.0307746 0 71.9105
0.000402223 0.00321336 0 111.502
-0.000561587 0.00118082 0 293.592
-0.00107178 0.00734408 0 68.5873
-4.6988e-005 0.00292472 0 262.035
0.000121356 0.00262665 0 273.428
-0.00180667 0.021881 0 87.2726
-0.000301986 0.0030856 0 141.983
-0.000116548 0.00289513 0 266.706
0.000683718 0.0116885 0 82.4085
-0.000354426 0.00170815 0 286.436
0.000168525 0.00302989 0 140.744
0.0016288 0.00554363 0 117.777
-0.000454254 0.00780077 0 67.5003
9.99188e-005 0.00299126 0 257.749
-0.000923631 0.00351832 0 174.404
-0.000513771 0.00531417 0 82.1122
-0.000134682 0.0174176 0 109.22
0.000245462 0.00302872 0 224.36
-0.00010594 0.00296983 0 262.261
0.000263028 0.00390471 0 109.988
0.000668464 0.00324245 0 217.62
-0.00016736 0.00267447 0 272.79
9.47415e-005 0.00371123 0 121.571
0.00421743 0.0282356 0 74.4628
0.000517536 0.00330043 0 108.138
7.86006e-005 0.00301308 0 234.145
-0.00150253 0.0233222 0 86.6215
3.50244e-005 0.00343033 0 142.994
0.00521285 0.0268086 0 77.1143
-2.25255e-005 0.00298419 0 252.543
0.000210866 0.0048041 0 90.5831
-0.00060708 0.0165096 0 102.781
0.00212885 0.0061951 0 146.08
-2.66592e-005 0.00312601 0 199.984
-0.00828018 0.0153779 0 164.307
-0.00170476 0.0244237 0 83.2906
-2.90915e-005 0.00298341 0 252.7
-0.00185381 0.0061466 0 117.141
3.45393e-006 0.00277635 0 269.924
0.00147734 0.00677235 0 98.644
0.00789347 0.0314466 0 70.436
-0.00613399 0.0273266 0 66.7312
6.50073e-005 0.00218408 0 279.782
-0.00147779 0.0231807 0 86.5189
-0.000188401 0.00264524 0 273.437
-0.00075172 0.0114273 0 82.8234
0.00122718 0.0181316 0 85.129
-0.000212778 0.0261997 0 80.2094
-0.000849183 0.00348376 0 149.104
0.00262104 0.0134155 0 110.513
1.27232e-005 0.00293823 0 260.214
0.000154311 0.000143575 0 299.997
0.00227939 0.00864795 0 118.979
-0.000341661 0.00336084 0 120.279
-0.00187213 0.00737965 0 109.187
-0.000325102 0.00324186 0 120.903
0.00106283 0.00405371 0 113.025
0.00306202 0.0160229 0 87.9771
-0.00125502 0.0209796 0 91.6898
-0.000371653 0.00205944 0 281.123
-6.26965e-005 0.00321945 0 169.879
0.00162374 0.026075 0 79.6857
2.10167e-006 0.00278249 0 269.724
-0.0055484 0.0286456 0 71.6975
0.00015094 0.0013019 0 293.559
0.000698722 0.0033001 0 175.339
-0.000209116 0.00313022 0 136.813
0.000178301 0.00263421 0 273.502
-0.000170601 0.00241911 0 276.454
6.51233e-005 0.00278293 0 269.834
0.000796117 0.00012178 0 299.993
-0.00585119 0.020535 0 68.4933
-0.000609924 0.00122633 0 292.567
-0.000102624 0.00304973 0 187.211
0.00514232 0.0257801 0 72.0249
-0.00828702 0.0225688 0 62.3288
-0.000614799 0.00344241 0 104.3
-0.00151189 0.0188183 0 83.1998
-3.25492e-005 0.0029848 0 252.35
0.00054607 0.027935 0 75.6403
-0.000162612 0.00307065 0 143.618
0.00170386 0.00536783 0 125.724
0.000122657 0.00246052 0 275.942
0.000114118 0.00372299 0 121.086
0.000279019 0.00175174 0 285.993
-0.00259204 0.0130168 0 117.584
0.0051502 0.0128645 0 152.688
-9.8562e-005 0.00342344 0 140.029
-0.000685127 0.00529569 0 82.0716
-0.000466511 0.00313725 0 183.95
0.000190709 0.00268308 0 273.071
0.000395417 0.00366064 0 111.258
0.000169582 0.00301879 0 192.231
-0.00265958 0.00992127 0 146.619
-0.00519759 0.0137459 0 102.566
-0.000114222 0.00289247 0 266.549
2.13384e-005 0.00287136 0 265.913
0.000112396 0.0030073 0 140.459
-0.000364131 0.0125976 0 79.9974
0.000638801 0.0281464 0 75.6338
-7.63196e-005 0.00301224 0 235.928
0.00647815 0.0133628 0 214.096
0.000321473 0.00338261 0 122.649
-0.00275906 0.0101546 0 160.831
-0.00198739 0.00761012 0 109.991
-0.00766429 0.0300439 0 66.148
-0.000176722 0.00312882 0 147.691
-0.00800327 0.0218525 0 65.0281
0.00020237 0.00307009 0 124.806
-0.000414328 0.00346374 0 113.023
-0.000653425 0.00100717 0 295.345