# U  FACE_DATA 23640
#  x  y  z  U_x  U_y  U_z  
-0.00296834 0.0159323 0 -552.128 2466.11 0
0.000794309 0.0100339 0 117.931 2763.89 0
0.00690979 0.0130745 0 580.463 433.123 0
0.000158008 0.0018211 0 -17.2907 129.789 0
-0.000662165 0.0113619 0 294.315 2652.53 0
-0.00203768 0.00587959 0 -490.193 1969.24 0
-0.000220137 0.00748479 0 -139.712 2778.48 0
0.00214531 0.0125841 0 -192.313 2405.33 0
-0.00164167 0.00702341 0 -303.526 2563.06 0
0.00020958 0.00306993 0 2236.95 648.627 0
4.59799e-005 0.00273939 0 -34.3967 433.613 0
0.00075606 0.00524313 0 938.277 2526.65 0
0.00107075 0.0257944 0 285.461 2624.25 0
-0.000458708 0.0115994 0 247.314 2672.16 0
-0.000900467 0.00350322 0 -1337.24 1411.92 0
-0.00222355 0.00655891 0 -426.189 1968.39 0
0.00442703 0.0182294 0 1013.89 2494.41 0
7.09705e-005 0.00299924 0 -109.439 1032.31 0
-2.45517e-005 0.00292714 0 42.4372 729.904 0
-0.000543852 0.00394831 0 -1400.86 2150.34 0
7.98376e-005 0.00283498 0 -85.4566 522.63 0
0.00510868 0.0124654 0 724.187 272.409 0
7.37866e-005 0.00284217 0 -82.484 536.084 0
-0.000122136 0.00287943 0 142.837 516.876 0
0.00117211 0.0120328 0 -322.973 2583.55 0
0.000340217 0.00636002 0 296.412 2723.44 0
-1.62375e-005 0.00331413 0 -101.296 2123.29 0
0.000288499 0.00391811 0 811.459 2355.54 0
0.00604323 0.0215883 0 1210.18 2443.47 0
0.0015748 0.0199438 0 412.458 2511.14 0
0.000642306 0.0286533 0 144.475 2678.61 0
-0.000788091 0.000235815 0 -7.5027 9.06001 0
8.45076e-005 0.00283429 0 -89.5857 518.612 0
-0.000766033 0.00453527 0 -1297.33 2256.53 0
-0.000556446 0.00360452 0 -1804.12 1635.41 0
-0.000694613 0.00330261 0 -1571.77 1157.98 0
0.00425461 0.0181246 0 982.333 2506.28 0
0.00563158 0.0299784 0 1067.09 2429.71 0
0.00374311 0.0125452 0 1521.61 941.623 0
-0.000168184 0.00269727 0 93.8555 349.373 0
0.00100487 0.00483203 0 1400.8 2296.42 0
-0.00170325 0.00704586 0 -280.517 2509.16 0
-0.00047461 0.0123053 0 467.353 2622.72 0
-0.00401905 0.0129379 0 -2004.46 1569.45 0
0.000128446 0.00148328 0 -10.7967 85.2118 0
0.000108141 0.00315803 0 919.781 1688.53 0
0.00299545 0.0176096 0 503.267 2641.53 0
0.00122698 0.00708374 0 742.693 2641.29 0
0.000214903 0.00307399 0 2204.34 634.995 0
0.00225142 0.0126586 0 -191.395 2382.18 0
0.000204708 0.00068009 0 3.58446 21.5919 0
4.25297e-005 0.00299727 0 -64.2982 1008.54 0
-0.000477288 0.00315875 0 -1786.38 899.8 0
-0.00378992 0.02149 0 -646.864 2607.31 0
0.000139812 0.00181138 0 -15.2783 127.789 0
0.000208917 0.00302796 0 1069.19 266.804 0
-0.00160791 0.0049468 0 -787.86 2042.01 0
0.000941143 0.00995448 0 -46.2139 2725.6 0
8.9442e-006 0.010956 0 24.8444 2847.27 0
-0.000434056 0.00133506 0 29.3503 93.0127 0
0.000566946 0.0289715 0 105.718 2668.66 0
-7.40414e-005 0.003214 0 -580.435 1892.55 0
-0.000145493 0.00239699 0 39.8081 244.873 0
3.42483e-005 0.00298986 0 -59.5209 967.296 0
0.000575544 0.00987125 0 243.95 2836.08 0
3.71363e-005 0.00299095 0 -63.9503 973.694 0
-0.00247102 0.00772987 0 -233.172 1928.24 0
0.00096928 0.0118325 0 -355.157 2586.32 0
-9.22697e-005 0.00299969 0 156.498 1043.21 0
-0.000570617 0.0122505 0 464.33 2618.52 0
-0.000211411 0.00254812 0 74.834 275.074 0
-0.000765289 0.00457715 0 -1256.45 2311.53 0
8.13068e-005 0.00294139 0 -145.097 711.86 0
-0.00437678 0.0203082 0 -812.242 2527.74 0
0.00226862 0.00661101 0 411.482 1938.96 0
-0.000832194 0.000220534 0 -9.50264 11.69 0
-0.000164868 0.00301134 0 -312.086 49.9263 0
0.0012393 0.0259768 0 317.863 2620.84 0
-2.48279e-005 0.00292318 0 42.4822 719.035 0
0.000116572 0.00245177 0 -36.2011 265.002 0
9.77655e-005 0.00313112 0 847.964 1639.22 0
0.000279024 0.00328636 0 1688.65 1510.74 0
-5.75605e-005 0.0116355 0 55.0991 2843.46 0
-7.47936e-005 0.0117342 0 58.2733 2838.13 0
0.000518168 0.00993111 0 223.398 2838.76 0
-0.000154608 0.0030256 0 -1868.74 449.297 0
4.53443e-005 0.00299839 0 -67.9661 1016.82 0
-0.000161071 0.0027724 0 110.176 377.921 0
0.000104836 0.00293916 0 -175.022 643.349 0
-0.00100104 0.00361077 0 -1288.23 1453.78 0
-0.000510005 0.00921774 0 -231.578 2814.1 0
0.00100295 0.0100141 0 -153.32 2687.93 0
-0.000646084 0.00336418 0 -1925.47 1307.46 0
6.96906e-005 0.00293287 0 -121.481 707.79 0
-1.67264e-005 0.00300289 0 20.3387 1035.22 0
0.000173509 0.0227352 0 46.1837 2598.02 0
3.17037e-005 0.00298455 0 -58.2455 940.664 0
0.000312244 0.00306502 0 1600.27 542.078 0
-0.00212604 0.00906512 0 -85.6113 2388.9 0
-0.00049218 0.00322389 0 -2015.24 1046.73 0
0.000341345 0.00323843 0 1994.22 1119.68 0
-0.00385942 0.0216496 0 -649.041 2602.73 0
-0.000125834 0.0028813 0 142.523 500.817 0
0.00524627 0.0255212 0 812.463 2577.03 0
0.000713781 0.0036837 0 1985.25 1558.14 0
0.00601727 0.0299149 0 1134.67 2399.56 0
-0.000344095 0.00203632 0 43.3452 159.214 0
-0.0047341 0.0239481 0 -770.126 2627.75 0
-0.000460773 0.00539436 0 -552.134 2640.7 0
-0.00196148 0.00905338 0 -48.6771 2456.05 0
0.00143807 0.0303782 0 275.281 2673.71 0
7.94637e-005 0.00293894 0 -139.962 707.914 0
0.00013473 0.00481908 0 221.631 2623.12 0
0.00105264 0.00484794 0 1439.4 2261.23 0
0.000112877 0.0030262 0 1553.34 1308.53 0
-0.00781161 0.0282885 0 -1145.09 2463.8 0
-0.000846622 0.00344471 0 -1380.21 1325.52 0
-0.00206201 0.0306837 0 -394.395 2680.69 0
-0.00313594 0.0160362 0 -627.105 2502.39 0
0.00144289 0.0198776 0 382.122 2462.7 0
-0.000135136 0.00286502 0 133.768 451.67 0
-0.000205101 0.000950881 0 5.0036 35.7289 0
0.000372212 0.00308853 0 1448.93 626.903 0
0.000370404 0.000795868 0 -0.9484 33.5662 0
0.000201681 0.00347815 0 992.167 2112.45 0
-0.000147808 0.00278598 0 113.79 409.758 0
0.000218103 0.000637733 0 4.35561 19.3074 0
0.000195722 0.00313377 0 1801.3 1170.87 0
-0.00203813 0.00594128 0 -508.36 2043.52 0
0.00112067 0.00510142 0 1369.79 2306.97 0
5.16573e-005 0.00373385 0 194.621 2398.32 0
0.000381501 0.00336875 0 1846.32 1494.87 0
0.000860715 0.0258401 0 206.64 2636.01 0
-0.000116556 0.00339842 0 -669.885 2140.67 0
-0.00513668 0.0257477 0 -914.876 2476.86 0
-0.000162894 0.00277847 0 111.703 377.134 0
8.27341e-005 0.00277738 0 -69.7376 457.863 0
0.0010674 0.0118759 0 -333.63 2598.69 0
-4.09992e-005 0.00275121 0 32.231 444.847 0
3.29665e-005 0.00297369 0 -63.8831 889.214 0
-0.00204547 0.0090065 0 -83.1888 2407.82 0
-0.00160474 0.0048986 0 -803.635 2036.34 0
8.25825e-005 0.00294819 0 -153.301 728.593 0
4.00473e-005 0.00273627 0 -29.7723 431.477 0
-9.41642e-005 0.00295571 0 178.232 721.063 0
0.00150619 0.00997327 0 -131.365 2566.99 0
8.22134e-005 0.00268838 0 -50.4671 385.663 0
-0.000160791 0.00267895 0 87.1331 349.271 0
-0.000596112 0.00909085 0 -266.421 2806.4 0
-9.31423e-005 0.00299701 0 195.47 965.647 0
0.00235681 0.0126226 0 -162.654 2354 0
0.00203765 0.00557212 0 508.023 1639.26 0
-0.000165794 0.0115731 0 49.064 2833.36 0
6.0159e-005 0.0021996 0 -11.2331 196.723 0
0.000371981 0.00362464 0 1369.44 2024.4 0
-0.00733688 0.029685 0 -1187.18 2213.29 0
-0.000180414 0.00743151 0 -128.685 2782.67 0
-0.000357207 0.004885 0 -507.505 2602.48 0
0.00253943 0.00813968 0 253.14 2025.29 0
-1.29377e-005 0.00332967 0 -75.6045 2117.05 0
-0.0010235 0.00361199 0 -1219.43 1384.68 0
-0.000285329 0.0030748 0 -2007.54 634.343 0
-0.000681311 0.00329291 0 -1577.15 1160.54 0
-0.00260727 0.00895038 0 -194.561 2014.33 0
0.00788717 0.0276195 0 1163.44 2552.79 0
0.0089704 0.0287411 0 1319.57 2555.85 0
-0.000270534 0.00232157 0 56.1452 209.129 0
-0.00014416 0.00312601 0 -1356.25 1442.22 0
-0.000337662 0.00201762 0 41.3481 157.827 0
0.0003962 0.00337513 0 1851.36 1483.92 0
0.00121317 0.00701782 0 746.605 2643.28 0
0.000116206 0.00302915 0 1689.6 1234.32 0
0.00225197 0.00666935 0 402.935 1983.12 0
-0.000507665 0.00548922 0 -587.007 2632.2 0
-0.000231863 0.00226746 0 46.063 204.923 0
0.000244361 0.00226851 0 -48.0984 203.401 0
0.00111028 0.00505498 0 1367.96 2298.53 0
0.000121223 0.00304184 0 1555.47 1174.39 0
0.00012049 0.00243938 0 -36.5742 260.464 0
-0.0013386 0.0186068 0 -92.7617 2552.19 0
0.000102064 0.00149733 0 -8.77829 86.2436 0
0.000147362 0.00301363 0 1427.89 266.288 0
0.00106981 0.0119939 0 -334.924 2591.71 0
-0.000365953 0.00411169 0 -887.213 2397.04 0
0.00557444 0.020358 0 1176.46 2379.83 0
4.86089e-005 0.00307386 0 243.182 1483.29 0
-0.000177413 0.0035472 0 -806.876 2236.68 0
-0.000632994 0.00339325 0 -2022.09 1238.27 0
0.000487307 0.00130985 0 -32.39 101.083 0
-0.000349424 0.00402777 0 -880.297 2387.34 0
-0.00177251 0.00629586 0 -437.452 2268.8 0
-7.92525e-005 0.00273084 0 56.6112 418.098 0
0.000241714 0.00100077 0 -6.78725 41.6723 0
-0.000154516 0.0114773 0 47.0144 2835.25 0
0.00502442 0.0222916 0 898.303 2570.97 0
-0.000166546 0.00272686 0 100.214 360.691 0
0.000707598 0.00365891 0 1985.54 1516.7 0
-0.00157418 0.0046046 0 -896.372 1873.75 0
0.000122725 0.00301099 0 1560.07 484.675 0
0.000172305 0.00324558 0 1254.6 1738.19 0
7.46185e-006 0.00286175 0 -9.56728 590.575 0
0.00533293 0.0140838 0 2007.4 1333.27 0
0.00520504 0.0284215 0 1062.3 2417 0
-0.00170266 0.00713636 0 -276.485 2532.99 0
4.38765e-005 0.00290514 0 -68.516 664.193 0
0.00035679 0.0099507 0 138.547 2825.41 0
0.000120447 0.00300871 0 1394.19 437 0
7.85992e-005 0.00284146 0 -86.6662 531.841 0
0.000146556 0.00306157 0 1805.24 1071.66 0
-0.000265484 0.00230758 0 54.1296 208.052 0
-0.000558184 0.0114136 0 228.732 2700.64 0
0.000873988 0.011905 0 -381.731 2605.96 0
0.00195145 0.0157285 0 -50.2388 2535.41 0
0.000415959 0.00988952 0 174.187 2833.7 0
0.00204861 0.00551694 0 538.934 1519.42 0
0.00159497 0.00893937 0 -19.3839 2530.44 0
0.00125366 0.00690066 0 730.882 2610.25 0
-0.000537482 0.00397822 0 -1379.96 2164.21 0
-0.00245206 0.00890865 0 -182.228 2227.53 0
-0.00591638 0.015069 0 -2002.91 1552.78 0
0.00182541 0.0157696 0 -115.719 2541.57 0
-6.39179e-005 0.00274368 0 48.5715 433.523 0
1.24162e-005 0.00286011 0 -15.518 587.003 0
0.000785526 0.00520879 0 964.745 2515.25 0
0.000119132 0.00288179 0 -140.218 530.267 0
0.000107617 0.00492998 0 149.971 2645.9 0
-0.000398708 0.00617064 0 -372.771 2714.2 0
-0.00031795 0.000861625 0 4.95976 34.0681 0
-0.0054742 0.0145195 0 -2078.91 1543.99 0
-0.00050603 0.0093045 0 -230.721 2817.08 0
-0.00281713 0.0160093 0 -450.679 2512.99 0
-0.00521587 0.0225645 0 -943.323 2576.41 0
0.000631138 0.00410172 0 1414.14 2142.93 0
0.00077675 0.0118594 0 -396.968 2607.73 0
-0.000339893 0.00491785 0 -489.304 2606.66 0
0.000278502 0.0033019 0 1663.03 1554.54 0
-0.000206291 0.0025551 0 74.9218 279.536 0
0.0015782 0.00885327 0 -21.4064 2552.73 0
-0.000601058 0.00917374 0 -266.79 2807.19 0
0.000107852 0.00308374 0 1000.95 1487.91 0
0.000329157 0.00324408 0 1943.9 1171.75 0
-0.000107456 0.0030138 0 -1500.94 1392.46 0
0.000995869 0.00478803 0 1409.92 2271.82 0
-0.00176263 0.00715431 0 -267.455 2458.56 0
0.000133123 0.00190024 0 -15.9439 141.205 0
0.00428452 0.0222831 0 706.526 2612.32 0
0.00249322 0.0134845 0 103.863 2420.56 0
0.000209201 0.00303326 0 1582.29 396.706 0
1.124e-005 0.00241342 0 -3.30569 256.618 0
-0.000138897 0.00282521 0 126.027 445.759 0
-0.000422518 0.00130967 0 28.179 89.061 0
0.000897928 0.00602889 0 831.711 2604.83 0
0.00296246 0.0177704 0 493.948 2617.27 0
-0.000240922 0.0022558 0 46.7295 201.736 0
0.000161456 0.0106342 0 55.6264 2835.97 0
-0.000169117 0.00269067 0 92.2049 346.505 0
-0.00600599 0.0132277 0 -1182.81 549.368 0
-0.00498542 0.0226529 0 -878.213 2618.48 0
0.00035646 0.00189436 0 -38.2645 142.82 0
0.000360867 0.00193124 0 -40.2576 146.95 0
0.000188008 0.00159518 0 -17.0128 101.043 0
0.00315697 0.0294361 0 618.234 2579.08 0
0.000380728 0.00331446 0 1924.45 1280.69 0
-0.000407732 0.00541329 0 -467.111 2646.65 0
0.00599218 0.0187772 0 1406.94 2160.44 0
-0.000475668 0.0124289 0 482.822 2616.76 0
9.243e-005 0.00339173 0 506.529 2148.69 0
-0.0022067 0.00902531 0 -121.143 2358.28 0
0.000138287 0.010546 0 51.3786 2837.89 0
-4.59787e-005 0.00300592 0 50.4222 1065.81 0
0.000475334 0.00325723 0 2164.09 964.143 0
0.0081269 0.0233608 0 1492.59 2285.56 0
-0.000136448 0.00286953 0 128.249 435.648 0
0.000465099 0.00132931 0 -31.324 99.7613 0
0.000196949 0.00312437 0 1827.93 1120.98 0
-0.000725979 0.00459524 0 -1191.7 2358.34 0
0.00566025 0.0201173 0 1196.83 2405.76 0
-0.000237093 0.000937504 0 5.54915 35.7739 0
-7.15727e-006 0.00298867 0 11.8967 962.914 0
-0.000556128 0.00552312 0 -604.28 2630.98 0
-0.000151452 0.00278159 0 114.32 401.577 0
0.00604583 0.0167381 0 1915.07 1974.04 0
5.44524e-005 0.00307484 0 294.626 1491.61 0
3.5211e-005 0.00270778 0 -23.6644 408.325 0
-0.00210731 0.0068781 0 -380.608 2194.57 0
8.91266e-005 0.00319599 0 698.65 1833.51 0
-0.00242079 0.00974735 0 -75.5368 2287.35 0
0.00135885 0.00413507 0 970.952 1669.43 0
-0.00108228 0.00797081 0 -566.444 2710.55 0
3.29303e-005 0.00271504 0 -22.3963 414.359 0
-0.000508078 0.0208168 0 -182.35 2556.32 0
-0.00472826 0.0198065 0 -963.922 2481.42 0
0.00152826 0.0090827 0 -40.0654 2553.59 0
-0.00252462 0.00897287 0 -204.542 2184.2 0
-4.09377e-005 0.0027578 0 33.0568 451.219 0
-0.00186927 0.0116808 0 195.116 2474.53 0
0.00108447 0.00518193 0 1304.26 2359.51 0
-0.00419392 0.0202211 0 -777.724 2504.22 0
0.000296615 0.00594885 0 294.375 2700.27 0
0.00365557 0.0156923 0 845.443 2250.93 0
-0.000138643 0.00311989 0 -1314.47 1444.42 0
3.44704e-005 0.00298593 0 -62.6502 947.097 0
-0.000249911 0.000891772 0 4.10259 33.1398 0
0.00110337 0.0099601 0 -195.145 2614.84 0
8.04689e-005 0.00279643 0 -73.1327 477.867 0
0.00779157 0.0249956 0 1284.67 2375.32 0
0.000351464 0.00337107 0 1775.92 1579.59 0
-0.00012879 0.00323538 0 -981.351 1855.39 0
0.000155895 0.00168996 0 -15.2508 111.951 0
8.56943e-005 0.00294739 0 -157.624 719.364 0
0.0053023 0.0238774 0 892.253 2588.78 0
0.000238423 0.00318026 0 1802.62 1192.37 0
0.000230406 0.00226533 0 -46.1937 204.065 0
-5.15866e-005 0.00292996 0 90.1899 720.527 0
2.57476e-005 0.00286927 0 -33.7941 600.359 0
0.000105066 0.00340141 0 572.298 2134.79 0
-0.0006343 0.00341198 0 -2026.81 1247.09 0
-0.00683177 0.0130924 0 -672.168 426.208 0
-1.54609e-005 0.00299907 0 20.6435 1014.72 0
-0.00215958 0.00656839 0 -401.657 2113.2 0
0.00301179 0.0141363 0 664.346 2296.2 0
-0.000723924 0.00463742 0 -1183.57 2373.61 0
-0.000555458 0.00358088 0 -1831.26 1617.58 0
0.000287933 0.00394954 0 797.448 2387.91 0
-0.00525881 0.0259389 0 -926.999 2507.52 0
-0.000235386 0.00314485 0 -1956.03 1046.29 0
-0.000664883 0.00104525 0 34.0104 109.759 0
0.00182857 0.0107598 0 -121.572 2508.61 0
0.00289308 0.0133881 0 504.389 2247.96 0
0.000556851 0.000459359 0 9.52942 13.8845 0
-6.31462e-005 0.00306344 0 -329.865 1455.1 0
0.00204396 0.0126442 0 -208.991 2419.69 0
-0.000369072 0.00408052 0 -908.234 2392.22 0
-0.00018247 0.00378321 0 -585.784 2354.11 0
0.000579156 0.0162179 0 -190.454 2516.89 0
0.00117061 0.0100074 0 -195.108 2599.19 0
0.000129771 0.00301154 0 1408.69 316.709 0
0.00050022 0.00329429 0 2141.02 1007.43 0
-0.00194273 0.0117557 0 192.399 2446.8 0
0.000295066 0.00600891 0 293.604 2700.98 0
-0.000154748 0.0030213 0 -1567.36 374.694 0
8.51353e-005 0.00297491 0 -180.817 817.427 0
0.000370749 0.00364798 0 1345.3 2041.35 0
0.00032381 0.000892659 0 -4.78992 37.8403 0
-0.000114683 0.00273658 0 80.7658 408.935 0
7.10543e-005 0.0030026 0 -94.4438 1064.8 0
-9.6647e-005 0.00324264 0 -725.153 1920.78 0
0.000733896 0.00537107 0 861.164 2558.43 0
0.000155197 0.00494735 0 227.343 2642.58 0
0.000610019 0.00412319 0 1372.3 2183.88 0
0.000353717 0.00194986 0 -40.2049 148.968 0
-0.000244432 0.00314026 0 -2006.22 981.895 0
-0.00502653 0.0232658 0 -852.754 2574.04 0
-0.00178789 0.0309983 0 -365.649 2686.96 0
-0.000579723 0.00361754 0 -1832.96 1647.96 0
0.00813841 0.0273314 0 1221.55 2471.61 0
-0.002496 0.0131044 0 20.1278 2318.69 0
-0.00431729 0.0290645 0 -857.161 2522.74 0
-0.000157683 0.00240005 0 42.9581 244.779 0
-6.09633e-005 0.00273787 0 44.9549 428.556 0
-0.000172602 0.00356894 0 -737.383 2233.13 0
5.95493e-005 0.00280503 0 -57.3008 496.417 0
3.59382e-005 0.00297531 0 -69.7496 895.108 0
0.0038221 0.0156522 0 965.284 2276.85 0
0.00151814 0.00899556 0 -38.7312 2565.04 0
0.00891208 0.0209237 0 1987.36 2132.32 0
0.00932881 0.0247628 0 1515.15 2254.3 0
0.000401147 0.00319889 0 2201.57 866.804 0
-1.37134e-005 0.00292236 0 23.3795 720.004 0
-0.00149883 0.0199029 0 -377.132 2523.57 0
-0.000151382 0.00307642 0 -1724.18 1123.01 0
-9.99299e-005 0.00297786 0 198.303 730.965 0
0.00528439 0.0241343 0 894.311 2584.31 0
2.61097e-005 0.00286432 0 -33.4176 591.655 0
0.000206875 0.00349712 0 988.049 2119.12 0
-0.00509797 0.0234717 0 -852.714 2561.02 0
-0.000597722 0.000953511 0 28.5047 86.0865 0
-0.00793898 0.0155863 0 -1673.46 1406.83 0
0.00183935 0.0106624 0 -111.042 2503.91 0
7.52069e-005 0.00339368 0 417.228 2173.77 0
-7.77056e-005 0.00294222 0 140.715 722.155 0
-9.8985e-005 0.00297992 0 199.877 744.96 0
0.00161823 0.00911669 0 -35.1616 2532.73 0
8.21842e-005 0.00297527 0 -173.915 829.321 0
-0.00188133 0.00900925 0 -40.8342 2502.77 0
-0.00617827 0.0275965 0 -1159.64 2547.89 0
-0.000490092 0.00321051 0 -1977.02 1024.3 0
0.00945115 0.0288751 0 1303.03 2394.12 0
-0.00016434 0.00272067 0 98.6711 362.301 0
-0.00797941 0.0222445 0 -1487.59 2204.26 0
-4.01564e-005 0.00301654 0 17.3646 1129.1 0
-0.00180498 0.00506765 0 -690.496 1785.57 0
-0.000161305 0.00301261 0 -536.393 95.8762 0
-0.000482063 0.00316965 0 -1830.52 947.862 0
-0.000942791 0.00378901 0 -1560.43 1724.98 0
-0.000134053 0.00282435 0 122.985 456.959 0
0.000242746 0.000963685 0 -5.47897 38.8357 0
0.00525461 0.0274919 0 1133.75 2386.35 0
0.00306352 0.0179257 0 517.168 2603.67 0
-0.000120066 0.00324295 0 -907.992 1878.52 0
-0.00319507 0.0125029 0 -1036.29 1885.55 0
-0.000290892 0.00233844 0 60.4459 205.599 0
0.00159844 0.00482417 0 806.212 1985.4 0
0.00787978 0.0236538 0 1400.36 2339.88 0
0.00145057 0.0259009 0 374.728 2601.46 0
-0.000336257 0.00619409 0 -297.045 2766.73 0
-0.000333917 0.00172186 0 30.6489 122.85 0
0.00577509 0.0216659 0 1128.51 2487.36 0
0.000667048 0.00332313 0 1752.57 1266.4 0
0.00248969 0.00807562 0 222.273 2092.54 0
-0.00160944 0.00467215 0 -856.965 1886.07 0
1.98969e-005 0.00242157 0 -6.05678 259.42 0
0.000286635 0.0021356 0 -43.9141 176.593 0
-0.00161117 0.00618199 0 -519.844 2446.72 0
7.54635e-005 0.00268391 0 -45.9306 383.831 0
0.00101663 0.00497361 0 1335.22 2328.12 0
9.78423e-005 0.00320089 0 759.091 1821.9 0
-0.000282098 0.0245537 0 -100.122 2635.72 0
0.00160534 0.0053807 0 696.049 2263.22 0
0.000645555 0.00426047 0 1309.91 2249.46 0
0.000344665 0.00191282 0 -38.1482 145.051 0
-4.37224e-005 0.0030135 0 26.6047 1113.3 0
0.000410526 0.00592784 0 397.033 2695.48 0
-0.00161438 0.00462874 0 -843.832 1783.17 0
0.000197339 0.00307463 0 2167.65 732.378 0
-0.00787948 0.0250527 0 -1277.13 2364.72 0
0.000365567 0.000836364 0 -3.05295 36.1525 0
0.000428529 0.0031113 0 1420.4 646.63 0
6.29689e-005 0.00280138 0 -59.9941 490.424 0
-0.00260928 0.0115127 0 34.0404 2214.12 0
0.00511854 0.0182191 0 1181.41 2257.82 0
-0.000191506 0.0013612 0 13.7174 73.1983 0
0.000255298 0.00234631 0 -57.1495 217.088 0
7.80872e-005 0.00285378 0 -90.5116 548.332 0
-6.93966e-006 0.00361778 0 -19.0383 2359.19 0
-0.000112834 0.00273034 0 77.4353 405.234 0
-0.000151306 0.00308356 0 -1659.71 1177.13 0
0.000794921 0.00339323 0 1475.83 1340.89 0
0.000120559 0.00308016 0 1189.04 1419.01 0
-0.00060963 0.000994212 0 30.8326 94.9759 0
-0.000187211 0.00375918 0 -639.239 2346.55 0
-0.000179749 0.00239602 0 47.9962 241.077 0
0.000583853 0.00320912 0 1523.28 1030.89 0
-0.000220391 0.00307379 0 -2171.06 672.149 0
-3.20721e-005 0.00313154 0 -230.969 1691.67 0
-0.00240166 0.00829286 0 -237.703 2185.73 0
-0.000107553 0.0032363 0 -823.02 1887.21 0
0.000485775 0.00324734 0 2142.5 994.357 0
-1.6528e-005 0.00283252 0 18.1578 542.982 0
0.000388916 0.00319175 0 2203.11 863.471 0
-0.000191501 0.000101552 0 -0.210291 0.603293 0
-0.00244196 0.00780076 0 -270.49 2020.23 0
-0.000237142 0.00223825 0 44.4795 198.509 0
-0.00179252 0.00511195 0 -668.235 1898.55 0
7.86645e-005 0.00300926 0 -32.8201 1157.07 0
-0.00578012 0.0268724 0 -1148.01 2620.33 0
-0.00101007 0.00801211 0 -545.111 2727.89 0
0.000363332 0.00337974 0 1775.17 1570.86 0
0.000391279 0.00186159 0 -38.8272 139.604 0
0.000433244 0.00317308 0 2070.52 929.454 0
0.00161612 0.00543442 0 681.994 2263.15 0
-0.00207993 0.00693738 0 -366.404 2197.61 0
0.000483914 0.00474879 0 749.663 2531.07 0
0.000802557 6.40842e-005 0 0.187769 0.119075 0
0.00066144 0.00330597 0 1708.18 1247.16 0
0.00141767 0.0197289 0 374.273 2467.35 0
-0.000651775 0.00329699 0 -1706.43 1197.42 0
0.000282152 0.00304241 0 730.06 132.09 0
-0.000357054 0.00319624 0 -2181.77 923.718 0
-0.00178284 0.00623412 0 -458.508 2251.83 0
3.8992e-005 0.00380209 0 139.794 2439.67 0
-0.00100109 0.0210667 0 -352.648 2538.29 0
0.000165033 0.00158259 0 -14.797 98.5652 0
0.00864187 0.0174253 0 1794.49 1602.37 0
0.00315453 0.0128329 0 854.002 1796.47 0
-8.64597e-005 0.00318341 0 -706.249 1800.81 0
-0.000259494 0.0126492 0 466.609 2659.2 0
0.000466396 0.000355167 0 4.70694 4.52576 0
0.000246728 0.00318708 0 1805.52 1185.15 0
-0.000724122 0.000493878 0 4.12704 49.4279 0
-0.00236534 0.0089472 0 -160.097 2290.03 0
-0.00585899 0.0184819 0 -1350.39 2115.73 0
-0.000109395 0.00425783 0 -225.152 2554.41 0
-0.000225082 0.00307869 0 -2179.66 690.483 0
0.00116126 0.00383867 0 1154.17 1649.56 0
0.000146244 0.00305529 0 1897.73 1031.68 0
0.000106639 0.00285591 0 -119.392 525.235 0
0.00516349 0.0142403 0 1911.12 1400.27 0
-0.000547118 0.0281975 0 -135.365 2674.15 0
-0.00314055 0.0188201 0 -552.271 2602.68 0
6.39205e-005 0.0034062 0 360.512 2194.54 0
0.000746714 0.00049437 0 -6.26392 52.371 0
0.00226648 0.0258744 0 574.186 2548.68 0
-0.000137355 0.00283875 0 121.594 453.795 0
0.00173233 0.0108179 0 -146.503 2531.81 0
-0.000334456 0.00625618 0 -280.784 2725.78 0
-0.000652252 0.00338145 0 -1945.01 1308.13 0
-6.89277e-005 0.00306466 0 -398.879 1474.44 0
0.000126795 0.00304178 0 1785.58 1202.56 0
0.00478399 0.0277755 0 1003.28 2431.86 0
0.000516287 0.0229306 0 153.02 2589.11 0
5.89116e-005 0.00254342 0 -23.7404 306.545 0
-0.00795861 0.0246948 0 -1278.12 2348.95 0
0.00133689 0.00999394 0 -162.103 2572.98 0
-0.000118825 0.0220921 0 -53.7654 2576.93 0
6.34909e-005 0.0107046 0 37.8783 2840.9 0
-0.000946741 0.00381309 0 -1610.05 1718.22 0
0.00581241 0.0241952 0 969.911 2513.49 0
-0.00487736 0.01991 0 -972.815 2454.34 0
0.00170829 0.0256098 0 453.927 2600.57 0
9.98067e-005 0.00316224 0 836.816 1720.86 0
0.00308063 0.0142797 0 679.646 2346.02 0
-0.000279242 0.00307977 0 -2089.11 634.079 0
-0.000183934 0.00303725 0 -1975.81 462.593 0
7.83288e-005 0.00286324 0 -94.9356 562.5 0
-0.000440884 0.00514493 0 -566.771 2608.25 0
0.000455558 0.00477565 0 700.727 2548.18 0
0.00520625 0.0221693 0 955.407 2511.53 0
-0.00179507 0.00722781 0 -266.997 2441.13 0
5.54873e-005 0.00266826 0 -32.4141 376.66 0
-0.00157971 0.00456195 0 -866.038 1771.93 0
4.18607e-005 0.00302762 0 16.0186 1200.09 0
-0.000194972 5.19224e-005 0 -0.0942254 0.286986 0
-0.000846289 0.00342394 0 -1288.29 1237.4 0
-0.00105965 0.00823661 0 -507.406 2732.83 0
0.000163413 0.00479131 0 270.766 2621.69 0
-8.2874e-005 0.00288534 0 111.01 593.241 0
0.00157378 0.00552232 0 625.899 2333.49 0
-7.66839e-005 0.00293931 0 135.976 715.302 0
0.000101978 0.0109948 0 40.9427 2848.33 0
-0.000363872 0.00601296 0 -338.931 2708.2 0
0.000117978 0.00287815 0 -138.566 530.443 0
0.000219153 0.00318835 0 1703.9 1341.35 0
-0.00163196 0.00449872 0 -657.303 1302.28 0
-0.000221409 0.00303399 0 -1313.13 296.873 0
-0.000370966 0.0244074 0 -126.019 2628.23 0
-0.000466554 0.00315829 0 -1832.1 914.433 0
0.000396164 0.00331941 0 1956.88 1255.46 0
-0.00482666 0.0238063 0 -781.34 2584.68 0
0.00133411 0.00522841 0 1010.81 2355.88 0
-0.00267568 0.00982141 0 -97.7344 2051.24 0
-0.000480207 0.0219659 0 -181.111 2569.16 0
0.00177473 0.0106071 0 -119.986 2519.96 0
0.000428512 0.00597987 0 398.977 2695.22 0
0.00330832 0.0202369 0 533.157 2589.01 0
-0.00036699 0.012473 0 476.569 2631.74 0
-0.000901486 0.00347959 0 -1264.1 1281.38 0
-9.70158e-005 0.00294708 0 174.071 689.917 0
-0.00110466 0.0144253 0 449.653 2577.44 0
-0.00107199 0.0143087 0 448.736 2581.93 0
0.000113095 0.0030798 0 1071.21 1454.71 0
0.000776547 0.0117402 0 -398.08 2607.98 0
-0.000196596 0.00302496 0 -1062.75 216.864 0
-0.00581483 0.0148124 0 -2017.91 1523.15 0
0.000125326 0.00308478 0 1252 1401.63 0
-0.00172589 0.0230235 0 -545.637 2547.24 0
-0.00123798 0.0114294 0 301.846 2620.78 0
-0.000106038 0.00301072 0 -1431.25 1444.18 0
7.68012e-005 0.00277918 0 -65.4977 462.174 0
-0.000218387 0.00226751 0 43.8106 205.827 0
0.00288382 0.0120736 0 -15.0189 1940.86 0
0.000136685 0.00272066 0 -88.2999 386.426 0
0.00126396 0.00994364 0 -167.822 2578.34 0
0.000169734 0.00323168 0 1270.6 1712.74 0
3.33298e-005 0.00296283 0 -64.9194 843.372 0
7.38909e-005 0.00285244 0 -85.4222 549.055 0
0.00226662 0.00684142 0 398.357 2072.78 0
-4.80444e-005 0.00288948 0 68.8239 629.142 0
0.000117291 0.00304527 0 1369.02 1297.72 0
0.00044057 0.00316393 0 1962.85 963.512 0
0.00025781 0.000139806 0 0.484099 0.803718 0
-0.000553437 0.0115383 0 301.703 2638.98 0
0.00174054 0.0109254 0 -148.488 2526.65 0
-0.00657824 0.0304887 0 -1163.33 2326.82 0
-0.00287878 0.0309438 0 -541.36 2626.03 0
-1.74214e-005 0.00292383 0 29.869 723.061 0
0.000417861 0.00311152 0 1599.99 707.042 0
-0.000158816 0.00302837 0 -1942.1 445.884 0
0.000540608 0.00339996 0 2106.94 1236.13 0
0.00322243 0.0179545 0 611.823 2573.29 0
-0.000159371 0.0013528 0 11.3372 70.786 0
0.000126077 0.0159893 0 -18.8212 2485.12 0
-0.00432652 0.0294311 0 -854.631 2522.94 0
0.0015673 0.00546801 0 654.967 2343.28 0
-5.0904e-005 0.00292621 0 87.2307 711.142 0
-0.000106737 0.00293051 0 168.404 620.026 0
0.00275932 0.0110589 0 6.55884 2134.36 0
0.000556951 0.00340784 0 2099.47 1228.26 0
0.000399007 0.0063813 0 336.954 2724.75 0
-4.55764e-005 0.00288684 0 63.8499 624.893 0
5.78688e-005 0.00240298 0 -16.6639 252.146 0
-0.00135948 0.0128543 0 341.99 2609.91 0
0.00105587 0.00489705 0 1409.06 2286.52 0
-0.00180772 0.00736401 0 -260.73 2466.59 0
8.62884e-005 0.0107917 0 38.6046 2841.59 0
-1.73838e-005 0.00299616 0 26.213 999.205 0
-0.000559779 0.00402893 0 -1372.56 2199.72 0
-0.000129894 0.00339006 0 -748.92 2114.62 0
-0.00108645 0.0209701 0 -363.412 2535.55 0
-0.000355289 0.00318516 0 -2163.42 886.364 0
6.75287e-005 0.00268766 0 -41.7637 388.22 0
-1.6399e-005 0.00282695 0 17.834 535.661 0
0.000375645 0.00184967 0 -37.5162 138.279 0
0.000226595 0.00318087 0 1766.31 1268.26 0
-0.00157723 0.0197887 0 -331.005 2550.71 0
0.000153682 0.00302297 0 2010.33 458.529 0
-0.000983791 0.00376429 0 -1442.47 1756.97 0
0.00320404 0.0139037 0 751.418 2138.51 0
-0.000399729 0.0051532 0 -510.892 2628.93 0
-8.43671e-005 0.0028893 0 115.991 598.587 0
0.00153091 0.0204307 0 459.808 2433.58 0
0.0023948 0.0125217 0 -160.603 2346.17 0
0.000662239 0.00525468 0 800.652 2558.91 0
-0.00103759 0.0179087 0 16.6089 2577.38 0
-0.00194218 0.00558429 0 -591.949 1970.7 0
-0.000960129 0.00376594 0 -1502.13 1761.95 0
-0.000309837 0.00306474 0 -1430.92 498.373 0
0.00162461 0.00920594 0 -40.2918 2549.38 0
0.00346181 0.0203111 0 568.553 2606.8 0
0.000412094 0.000782235 0 -1.24143 35.2766 0
4.10836e-005 0.00290739 0 -64.8397 670.98 0
0.00107752 0.00513333 0 1305.87 2359.65 0
-0.00139776 0.00696247 0 -564.529 2694.59 0
5.83714e-005 0.0023895 0 -16.2112 247.913 0
0.000501828 0.0119171 0 -451.229 2647.82 0
-2.97555e-005 0.00300349 0 37.5257 1041.91 0
0.00113092 0.00612109 0 986.223 2555.39 0
3.11664e-005 0.00285722 0 -38.4782 578.28 0
-0.000756348 0.0223669 0 -266.418 2579.28 0
0.000606022 0.00322532 0 1535.75 1033.99 0
0.00858419 0.0213223 0 1793.31 2130.29 0
0.00228739 0.00873166 0 157.975 2338.94 0
-0.00330691 0.0124678 0 -1254.12 1621.77 0
-0.00135503 0.018735 0 -89.1381 2583.06 0
-0.00782909 0.0173425 0 -2130.56 1755.09 0
0.000179373 0.00168518 0 -17.2664 112.032 0
0.000181353 0.0228576 0 46.0551 2597.92 0
0.00116853 0.00608209 0 1049 2557.44 0
0.00534216 0.0272787 0 1138.51 2376.9 0
0.000808836 0.00340365 0 1467.88 1342.36 0
-0.00176706 0.00728799 0 -267.801 2485.37 0
0.000366125 0.00308127 0 1348.64 550.799 0
0.000142062 0.00271694 0 -90.0289 380.776 0
0.000456136 0.0264018 0 101.132 2650.38 0
0.000149779 0.00301624 0 1610.27 315.093 0
8.09965e-005 0.015903 0 -16.6121 2483.47 0
3.07264e-005 0.00286231 0 -38.8912 586.89 0
-0.000148146 0.00339011 0 -857.373 2088.27 0
-0.0064378 0.0277565 0 -1123.08 2473.45 0
0.00072806 0.00532362 0 861.834 2556.67 0
-0.00065633 0.00335203 0 -1850.34 1304.45 0
-0.000360464 0.000878987 0 7.28516 38.0695 0
-9.67537e-005 0.00295742 0 182.772 716.165 0
-0.000484113 0.00948683 0 -200.436 2821.31 0
-0.000565445 0.00399845 0 -1396.53 2174 0
0.000588623 0.00111811 0 -34.1865 104.789 0
0.000130395 0.00304539 0 1774.39 1190.74 0
0.000107754 0.00285149 0 -117.999 518.738 0
0.00165731 0.0250536 0 439.363 2571.39 0
0.00285988 0.0119675 0 -41.5713 1903.64 0
-9.54028e-005 0.00428588 0 -202.765 2566.14 0
-0.000124414 0.00317156 0 -1054.63 1697.12 0
-0.00814733 0.0285856 0 -1148.84 2482.2 0
-0.000216377 0.0031251 0 -1936.01 1021.36 0
0.00549751 0.012219 0 252.58 106.289 0
-0.00550796 0.012201 0 -271.476 91.1857 0
0.00287309 0.0132504 0 486.07 2248.41 0
0.000396043 0.00090361 0 -8.26857 44.1661 0
-9.96587e-005 0.00294535 0 175.795 676.518 0
-0.00215947 0.00674928 0 -413.459 2172.23 0
-0.000289559 0.000893856 0 5.28902 35.1163 0
0.00184728 0.00894591 0 9.69903 2488.21 0
-0.000404895 0.00611192 0 -364.465 2697.56 0
-0.00085135 0.00350535 0 -1510.16 1492.49 0
3.34633e-006 0.00298331 0 -5.79178 938.138 0
0.00378526 0.0199019 0 690.918 2584.48 0
-0.000528492 0.024373 0 -169.524 2623.41 0
-0.000842118 0.0116133 0 382.035 2632.34 0
-0.00298148 0.0188909 0 -475.854 2581.47 0
5.9556e-005 0.0025331 0 -23.3549 302.222 0
-0.000468824 0.00121303 0 28.702 86.6041 0
9.1581e-005 0.0171817 0 -3.34236 2462.68 0
-0.00127026 0.0113439 0 294.932 2631.14 0
0.00402234 0.0130084 0 1818.33 1290.51 0
-0.000363163 0.00496329 0 -513.11 2608.14 0
-0.00609252 0.0268039 0 -1049.02 2592.57 0
0.000283831 0.00172705 0 -27.3722 121.287 0
-0.000884834 0.00452052 0 -1441.7 2206.29 0
0.000104251 0.00312707 0 912.226 1618.85 0
0.00028648 0.000908897 0 -4.49166 37.0259 0
0.00627587 0.0218045 0 1214.41 2436.98 0
0.000138189 0.00301242 0 1409.6 273.473 0
-8.45766e-005 0.00300744 0 13.3311 1179.58 0