# p  FACE_DATA 23640
#  x  y  z  p
-0.00296834 0.0159323 0 212.745
0.000794309 0.0100339 0 287.437
0.00690979 0.0130745 0 31.4066
0.000158008 0.0018211 0 205152
-0.000662165 0.0113619 0 507.309
-0.00203768 0.00587959 0 3076.83
-0.000220137 0.00748479 0 297.644
0.00214531 0.0125841 0 1146.33
-0.00164167 0.00702341 0 1532.94
0.00020958 0.00306993 0 3114.32
4.59799e-005 0.00273939 0 188627
0.00075606 0.00524313 0 619.327
0.00107075 0.0257944 0 473.89
-0.000458708 0.0115994 0 375.102
-0.000900467 0.00350322 0 4948.97
-0.00222355 0.00655891 0 2516.38
0.00442703 0.0182294 0 99.9813
7.09705e-005 0.00299924 0 125150
-2.45517e-005 0.00292714 0 161053
-0.000543852 0.00394831 0 1689.2
7.98376e-005 0.00283498 0 181245
0.00510868 0.0124654 0 20.0785
7.37866e-005 0.00284217 0 180022
-0.000122136 0.00287943 0 178773
0.00117211 0.0120328 0 750.552
0.000340217 0.00636002 0 452.309
-1.62375e-005 0.00331413 0 14819.7
0.000288499 0.00391811 0 2397.62
0.00604323 0.0215883 0 55.3254
0.0015748 0.0199438 0 654.844
0.000642306 0.0286533 0 363.751
-0.000788091 0.000235815 0 243837
8.45076e-005 0.00283429 0 181545
-0.000766033 0.00453527 0 880.569
-0.000556446 0.00360452 0 1719.41
-0.000694613 0.00330261 0 4373.46
0.00425461 0.0181246 0 107.487
0.00563158 0.0299784 0 198.187
0.00374311 0.0125452 0 38.8972
-0.000168184 0.00269727 0 194030
0.00100487 0.00483203 0 651.215
-0.00170325 0.00704586 0 1623.58
-0.00047461 0.0123053 0 503.354
-0.00401905 0.0129379 0 30.0629
0.000128446 0.00148328 0 206367
0.000108141 0.00315803 0 20705.5
0.00299545 0.0176096 0 203.575
0.00122698 0.00708374 0 389.988
0.000214903 0.00307399 0 3088.07
0.00225142 0.0126586 0 1197.34
0.000204708 0.00068009 0 214968
4.25297e-005 0.00299727 0 129383
-0.000477288 0.00315875 0 3846.89
-0.00378992 0.02149 0 112.675
0.000139812 0.00181138 0 205139
0.000208917 0.00302796 0 2871.29
-0.00160791 0.0049468 0 3371.07
0.000941143 0.00995448 0 514.77
8.9442e-006 0.010956 0 145.546
-0.000434056 0.00133506 0 208059
0.000566946 0.0289715 0 348.732
-7.40414e-005 0.003214 0 21289.7
-0.000145493 0.00239699 0 200780
3.42483e-005 0.00298986 0 134885
0.000575544 0.00987125 0 171.162
3.71363e-005 0.00299095 0 134012
-0.00247102 0.00772987 0 2254.63
0.00096928 0.0118325 0 663.806
-9.22697e-005 0.00299969 0 113847
-0.000570617 0.0122505 0 538.335
-0.000211411 0.00254812 0 199028
-0.000765289 0.00457715 0 851.882
8.13068e-005 0.00294139 0 162256
-0.00437678 0.0203082 0 94.0717
0.00226862 0.00661101 0 2795.23
-0.000832194 0.000220534 0 241056
-0.000164868 0.00301134 0 2978.44
0.0012393 0.0259768 0 454.723
-2.48279e-005 0.00292318 0 162371
0.000116572 0.00245177 0 199568
9.77655e-005 0.00313112 0 25265
0.000279024 0.00328636 0 4627.45
-5.75605e-005 0.0116355 0 163.174
-7.47936e-005 0.0117342 0 163.557
0.000518168 0.00993111 0 164.635
-0.000154608 0.0030256 0 3097.9
4.53443e-005 0.00299839 0 128613
-0.000161071 0.0027724 0 190950
0.000104836 0.00293916 0 166036
-0.00100104 0.00361077 0 4668.22
-0.000510005 0.00921774 0 194.47
0.00100295 0.0100141 0 612.465
-0.000646084 0.00336418 0 3006.15
6.96906e-005 0.00293287 0 162846
-1.67264e-005 0.00300289 0 126747
0.000173509 0.0227352 0 763.556
3.17037e-005 0.00298455 0 137917
0.000312244 0.00306502 0 3356.41
-0.00212604 0.00906512 0 1514.69
-0.00049218 0.00322389 0 3007.91
0.000341345 0.00323843 0 2824.95
-0.00385942 0.0216496 0 109.95
-0.000125834 0.0028813 0 178660
0.00524627 0.0255212 0 104.73
0.000713781 0.0036837 0 1239.09
0.00601727 0.0299149 0 188.464
-0.000344095 0.00203632 0 204940
-0.0047341 0.0239481 0 79.3211
-0.000460773 0.00539436 0 672.568
-0.00196148 0.00905338 0 1399.14
0.00143807 0.0303782 0 306.875
7.94637e-005 0.00293894 0 162691
0.00013473 0.00481908 0 1042.93
0.00105264 0.00484794 0 628.792
0.000112877 0.0030262 0 11130.6
-0.00781161 0.0282885 0 51.6446
-0.000846622 0.00344471 0 4939.74
-0.00206201 0.0306837 0 282.768
-0.00313594 0.0160362 0 196.901
0.00144289 0.0198776 0 736.531
-0.000135136 0.00286502 0 180728
-0.000205101 0.000950881 0 209115
0.000372212 0.00308853 0 4049.22
0.000370404 0.000795868 0 211010
0.000201681 0.00347815 0 5563.46
-0.000147808 0.00278598 0 188305
0.000218103 0.000637733 0 222390
0.000195722 0.00313377 0 5943.32
-0.00203813 0.00594128 0 3017.35
0.00112067 0.00510142 0 574.191
5.16573e-005 0.00373385 0 3954.05
0.000381501 0.00336875 0 2842.72
0.000860715 0.0258401 0 486.569
-0.000116556 0.00339842 0 8603.17
-0.00513668 0.0257477 0 131.021
-0.000162894 0.00277847 0 190174
8.27341e-005 0.00277738 0 186719
0.0010674 0.0118759 0 713.313
-4.09992e-005 0.00275121 0 187724
3.29665e-005 0.00297369 0 143806
-0.00204547 0.0090065 0 1490.68
-0.00160474 0.0048986 0 3490.12
8.25825e-005 0.00294819 0 160093
4.00473e-005 0.00273627 0 188756
-9.41642e-005 0.00295571 0 159517
0.00150619 0.00997327 0 964.226
8.22134e-005 0.00268838 0 192174
-0.000160791 0.00267895 0 194412
-0.000596112 0.00909085 0 200.017
-9.31423e-005 0.00299701 0 125396
0.00235681 0.0126226 0 1264.89
0.00203765 0.00557212 0 3280.3
-0.000165794 0.0115731 0 173.95
6.0159e-005 0.0021996 0 202583
0.000371981 0.00362464 0 2860.16
-0.00733688 0.029685 0 128.451
-0.000180414 0.00743151 0 297.857
-0.000357207 0.004885 0 932.107
0.00253943 0.00813968 0 2128.73
-1.29377e-005 0.00332967 0 14514.5
-0.0010235 0.00361199 0 4691.56
-0.000285329 0.0030748 0 3308.66
-0.000681311 0.00329291 0 4397.31
-0.00260727 0.00895038 0 1695.98
0.00788717 0.0276195 0 45.7593
0.0089704 0.0287411 0 37.9167
-0.000270534 0.00232157 0 202683
-0.00014416 0.00312601 0 13373.3
-0.000337662 0.00201762 0 205025
0.0003962 0.00337513 0 2790.87
0.00121317 0.00701782 0 388.469
0.000116206 0.00302915 0 10252.4
0.00225197 0.00666935 0 2716.76
-0.000507665 0.00548922 0 628.832
-0.000231863 0.00226746 0 202826
0.000244361 0.00226851 0 202991
0.00111028 0.00505498 0 568.443
0.000121223 0.00304184 0 11353.7
0.00012049 0.00243938 0 199878
-0.0013386 0.0186068 0 528.959
0.000102064 0.00149733 0 206320
0.000147362 0.00301363 0 2658.89
0.00106981 0.0119939 0 710.148
-0.000365953 0.00411169 0 1846.15
0.00557444 0.020358 0 65.294
4.86089e-005 0.00307386 0 64539.9
-0.000177413 0.0035472 0 5342.41
-0.000632994 0.00339325 0 2221.02
0.000487307 0.00130985 0 208446
-0.000349424 0.00402777 0 2035.93
-0.00177251 0.00629586 0 2250.64
-7.92525e-005 0.00273084 0 189804
0.000241714 0.00100077 0 208822
-0.000154516 0.0114773 0 172.097
0.00502442 0.0222916 0 79.5991
-0.000166546 0.00272686 0 192716
0.000707598 0.00365891 0 1286.12
-0.00157418 0.0046046 0 3944.88
0.000122725 0.00301099 0 2538.13
0.000172305 0.00324558 0 9762.57
7.46185e-006 0.00286175 0 175123
0.00533293 0.0140838 0 17.6863
0.00520504 0.0284215 0 221.221
-0.00170266 0.00713636 0 1629.71
4.38765e-005 0.00290514 0 167545
0.00035679 0.0099507 0 163.188
0.000120447 0.00300871 0 2659.17
7.85992e-005 0.00284146 0 180451
0.000146556 0.00306157 0 7209.75
-0.000265484 0.00230758 0 202835
-0.000558184 0.0114136 0 431.808
0.000873988 0.011905 0 635.485
0.00195145 0.0157285 0 463.224
0.000415959 0.00988952 0 164.047
0.00204861 0.00551694 0 3330.88
0.00159497 0.00893937 0 1134.98
0.00125366 0.00690066 0 465.576
-0.000537482 0.00397822 0 1607.74
-0.00245206 0.00890865 0 1786.63
-0.00591638 0.015069 0 17.9239
0.00182541 0.0157696 0 494.285
-6.39179e-005 0.00274368 0 188494
1.24162e-005 0.00286011 0 175537
0.000785526 0.00520879 0 631.809
0.000119132 0.00288179 0 178145
0.000107617 0.00492998 0 986.048
-0.000398708 0.00617064 0 467.825
-0.00031795 0.000861625 0 210233
-0.0054742 0.0145195 0 19.688
-0.00050603 0.0093045 0 194.398
-0.00281713 0.0160093 0 233.464
-0.00521587 0.0225645 0 68.8886
0.000631138 0.00410172 0 1274.16
0.00077675 0.0118594 0 602.607
-0.000339893 0.00491785 0 912.226
0.000278502 0.0033019 0 4548.1
-0.000206291 0.0025551 0 198661
0.0015782 0.00885327 0 1118.74
-0.000601058 0.00917374 0 200.174
0.000107852 0.00308374 0 24154.8
0.000329157 0.00324408 0 3138.06
-0.000107456 0.0030138 0 10427.2
0.000995869 0.00478803 0 676.889
-0.00176263 0.00715431 0 1712.75
0.000133123 0.00190024 0 204737
0.00428452 0.0222831 0 99.277
0.00249322 0.0134845 0 716.902
0.000209201 0.00303326 0 2904.74
1.124e-005 0.00241342 0 199840
-0.000138897 0.00282521 0 185664
-0.000422518 0.00130967 0 208219
0.000897928 0.00602889 0 451.222
0.00296246 0.0177704 0 202.367
-0.000240922 0.0022558 0 202975
0.000161456 0.0106342 0 150.37
-0.000169117 0.00269067 0 194178
-0.00600599 0.0132277 0 21.6509
-0.00498542 0.0226529 0 76.4934
0.00035646 0.00189436 0 205538
0.000360867 0.00193124 0 205382
0.000188008 0.00159518 0 206119
0.00315697 0.0294361 0 309.683
0.000380728 0.00331446 0 2668.12
-0.000407732 0.00541329 0 663.179
0.00599218 0.0187772 0 50.8677
-0.000475668 0.0124289 0 502.07
9.243e-005 0.00339173 0 9935.41
-0.0022067 0.00902531 0 1614.94
0.000138287 0.010546 0 150.305
-4.59787e-005 0.00300592 0 122109
0.000475334 0.00325723 0 2136.31
0.0081269 0.0233608 0 33.6445
-0.000136448 0.00286953 0 181260
0.000465099 0.00132931 0 208404
0.000196949 0.00312437 0 5992.6
-0.000725979 0.00459524 0 920.69
0.00566025 0.0201173 0 65.4831
-0.000237093 0.000937504 0 209358
-7.15727e-006 0.00298867 0 135498
-0.000556128 0.00552312 0 604.362
-0.000151452 0.00278159 0 189029
0.00604583 0.0167381 0 36.7081
5.44524e-005 0.00307484 0 61892
3.5211e-005 0.00270778 0 190463
-0.00210731 0.0068781 0 2355.05
8.91266e-005 0.00319599 0 21477.9
-0.00242079 0.00974735 0 1536.54
0.00135885 0.00413507 0 4194.09
-0.00108228 0.00797081 0 283.701
3.29303e-005 0.00271504 0 189917
-0.000508078 0.0208168 0 1013.21
-0.00472826 0.0198065 0 81.4749
0.00152826 0.0090827 0 1062.38
-0.00252462 0.00897287 0 1713.74
-4.09377e-005 0.0027578 0 187218
-0.00186927 0.0116808 0 1058.49
0.00108447 0.00518193 0 578.491
-0.00419392 0.0202211 0 99.3816
0.000296615 0.00594885 0 534.329
0.00365557 0.0156923 0 155.073
-0.000138643 0.00311989 0 14169.9
3.44704e-005 0.00298593 0 137130
-0.000249911 0.000891772 0 209529
0.00110337 0.0099601 0 743.638
8.04689e-005 0.00279643 0 184888
0.00779157 0.0249956 0 39.0929
0.000351464 0.00337107 0 3243.82
-0.00012879 0.00323538 0 13803.8
0.000155895 0.00168996 0 205679
8.56943e-005 0.00294739 0 160868
0.0053023 0.0238774 0 73.1334
0.000238423 0.00318026 0 5019.29
0.000230406 0.00226533 0 202914
-5.15866e-005 0.00292996 0 161574
2.57476e-005 0.00286927 0 174188
0.000105066 0.00340141 0 9305.53
-0.0006343 0.00341198 0 2054.06
-0.00683177 0.0130924 0 27.1302
-1.54609e-005 0.00299907 0 129240
-0.00215958 0.00656839 0 2612.88
0.00301179 0.0141363 0 277.788
-0.000723924 0.00463742 0 893.096
-0.000555458 0.00358088 0 1766.79
0.000287933 0.00394954 0 2288.72
-0.00525881 0.0259389 0 128.822
-0.000235386 0.00314485 0 4351.41
-0.000664883 0.00104525 0 211144
0.00182857 0.0107598 0 1116.34
0.00289308 0.0133881 0 392.174
0.000556851 0.000459359 0 231623
-6.31462e-005 0.00306344 0 62468.9
0.00204396 0.0126442 0 1103.92
-0.000369072 0.00408052 0 1859.32
-0.00018247 0.00378321 0 3247.71
0.000579156 0.0162179 0 1276.13
0.00117061 0.0100074 0 762.994
0.000129771 0.00301154 0 2388.76
0.00050022 0.00329429 0 1973.11
-0.00194273 0.0117557 0 1107.87
0.000295066 0.00600891 0 533.487
-0.000154748 0.0030213 0 2883.72
8.51353e-005 0.00297491 0 149149
0.000370749 0.00364798 0 2808.3
0.00032381 0.000892659 0 210082
-0.000114683 0.00273658 0 190390
7.10543e-005 0.0030026 0 119934
-9.6647e-005 0.00324264 0 16453.9
0.000733896 0.00537107 0 626.688
0.000155197 0.00494735 0 923.327
0.000610019 0.00412319 0 1312.33
0.000353717 0.00194986 0 205308
-0.000244432 0.00314026 0 3838.3
-0.00502653 0.0232658 0 75.7892
-0.00178789 0.0309983 0 276.658
-0.000579723 0.00361754 0 1709.03
0.00813841 0.0273314 0 40.7503
-0.002496 0.0131044 0 869.82
-0.00431729 0.0290645 0 256.661
-0.000157683 0.00240005 0 200834
-6.09633e-005 0.00273787 0 189068
-0.000172602 0.00356894 0 5025.62
5.95493e-005 0.00280503 0 183496
3.59382e-005 0.00297531 0 143055
0.0038221 0.0156522 0 141.268
0.00151814 0.00899556 0 1045.44
0.00891208 0.0209237 0 20.6442
0.00932881 0.0247628 0 25.3665
0.000401147 0.00319889 0 2281.43
-1.37134e-005 0.00292236 0 162301
-0.00149883 0.0199029 0 611.221
-0.000151382 0.00307642 0 8161.81
-9.99299e-005 0.00297786 0 150150
0.00528439 0.0241343 0 72.5824
2.61097e-005 0.00286432 0 175018
0.000206875 0.00349712 0 5375.67
-0.00509797 0.0234717 0 76.1032
-0.000597722 0.000953511 0 211994
-0.00793898 0.0155863 0 28.16
0.00183935 0.0106624 0 1128.19
7.52069e-005 0.00339368 0 10173.6
-7.77056e-005 0.00294222 0 160888
-9.8985e-005 0.00297992 0 149070
0.00161823 0.00911669 0 1118.47
8.21842e-005 0.00297527 0 148258
-0.00188133 0.00900925 0 1339.52
-0.00617827 0.0275965 0 130.312
-0.000490092 0.00321051 0 3204.6
0.00945115 0.0288751 0 33.1018
-0.00016434 0.00272067 0 193071
-0.00797941 0.0222445 0 27.9103
-4.01564e-005 0.00301654 0 114693
-0.00180498 0.00506765 0 3585.9
-0.000161305 0.00301261 0 3031.87
-0.000482063 0.00316965 0 3752.54
-0.000942791 0.00378901 0 2640.12
-0.000134053 0.00282435 0 185491
0.000242746 0.000963685 0 209006
0.00525461 0.0274919 0 209.738
0.00306352 0.0179257 0 194.606
-0.000120066 0.00324295 0 14131.4
-0.00319507 0.0125029 0 183.956
-0.000290892 0.00233844 0 202742
0.00159844 0.00482417 0 3624.75
0.00787978 0.0236538 0 34.5999
0.00145057 0.0259009 0 474.426
-0.000336257 0.00619409 0 454.702
-0.000333917 0.00172186 0 206131
0.00577509 0.0216659 0 59.3255
0.000667048 0.00332313 0 4083.99
0.00248969 0.00807562 0 2071.33
-0.00160944 0.00467215 0 3945.55
1.98969e-005 0.00242157 0 199767
0.000286635 0.0021356 0 204102
-0.00161117 0.00618199 0 1919.02
7.54635e-005 0.00268391 0 192316
0.00101663 0.00497361 0 618.557
9.78423e-005 0.00320089 0 19876.5
-0.000282098 0.0245537 0 548.272
0.00160534 0.0053807 0 2625.84
0.000645555 0.00426047 0 1222.69
0.000344665 0.00191282 0 205459
-4.37224e-005 0.0030135 0 116309
0.000410526 0.00592784 0 515.741
-0.00161438 0.00462874 0 4091.84
0.000197339 0.00307463 0 3504.07
-0.00787948 0.0250527 0 36.7563
0.000365567 0.000836364 0 210609
0.000428529 0.0031113 0 4005.03
6.29689e-005 0.00280138 0 184092
-0.00260928 0.0115127 0 1454.28
0.00511854 0.0182191 0 72.2485
-0.000191506 0.0013612 0 206965
0.000255298 0.00234631 0 202232
7.80872e-005 0.00285378 0 179073
-6.93966e-006 0.00361778 0 5497.64
-0.000112834 0.00273034 0 190764
-0.000151306 0.00308356 0 8715.26
0.000794921 0.00339323 0 4865.72
0.000120559 0.00308016 0 18541.1
-0.00060963 0.000994212 0 211562
-0.000187211 0.00375918 0 3334.37
-0.000179749 0.00239602 0 201048
0.000583853 0.00320912 0 4642
-0.000220391 0.00307379 0 3073.86
-3.20721e-005 0.00313154 0 45237.3
-0.00240166 0.00829286 0 1921.96
-0.000107553 0.0032363 0 15729.9
0.000485775 0.00324734 0 2438.71
-1.6528e-005 0.00283252 0 179270
0.000388916 0.00319175 0 2277.44
-0.000191501 0.000101552 0 394010
-0.00244196 0.00780076 0 2229.91
-0.000237142 0.00223825 0 203148
-0.00179252 0.00511195 0 3463.91
7.86645e-005 0.00300926 0 105692
-0.00578012 0.0268724 0 141.067
-0.00101007 0.00801211 0 263.523
0.000363332 0.00337974 0 3261.15
0.000391279 0.00186159 0 205826
0.000433244 0.00317308 0 3236.6
0.00161612 0.00543442 0 2603.18
-0.00207993 0.00693738 0 2275.06
0.000483914 0.00474879 0 1001.37
0.000802557 6.40842e-005 0 279487
0.00066144 0.00330597 0 4252.75
0.00141767 0.0197289 0 730.157
-0.000651775 0.00329699 0 4007.31
0.000282152 0.00304241 0 3222.59
-0.000357054 0.00319624 0 2406.92
-0.00178284 0.00623412 0 2272.08
3.8992e-005 0.00380209 0 3646.84
-0.00100109 0.0210667 0 863.541
0.000165033 0.00158259 0 206122
0.00864187 0.0174253 0 26.2976
0.00315453 0.0128329 0 242.696
-8.64597e-005 0.00318341 0 22620.7
-0.000259494 0.0126492 0 423.321
0.000466396 0.000355167 0 267037
0.000246728 0.00318708 0 4859.11
-0.000724122 0.000493878 0 222916
-0.00236534 0.0089472 0 1779.81
-0.00585899 0.0184819 0 51.9307
-0.000109395 0.00425783 0 1769.62
-0.000225082 0.00307869 0 3059.89
0.00116126 0.00383867 0 4603.88
0.000146244 0.00305529 0 6388.18
0.000106639 0.00285591 0 180490
0.00516349 0.0142403 0 19.7628
-0.000547118 0.0281975 0 388.744
-0.00314055 0.0188201 0 157.167
6.39205e-005 0.0034062 0 9687.95
0.000746714 0.00049437 0 222784
0.00226648 0.0258744 0 402.9
-0.000137355 0.00283875 0 184495
0.00173233 0.0108179 0 1044.25
-0.000334456 0.00625618 0 454.758
-0.000652252 0.00338145 0 2804.81
-6.89277e-005 0.00306466 0 56960.3
0.000126795 0.00304178 0 8568.94
0.00478399 0.0277755 0 251.013
0.000516287 0.0229306 0 738.262
5.89116e-005 0.00254342 0 197104
-0.00795861 0.0246948 0 36.8206
0.00133689 0.00999394 0 872.892
-0.000118825 0.0220921 0 878.126
6.34909e-005 0.0107046 0 149.495
-0.000946741 0.00381309 0 2521.65
0.00581241 0.0241952 0 64.5743
-0.00487736 0.01991 0 79.447
0.00170829 0.0256098 0 479.653
9.98067e-005 0.00316224 0 22236.2
0.00308063 0.0142797 0 272.585
-0.000279242 0.00307977 0 3217.26
-0.000183934 0.00303725 0 2975.75
7.83288e-005 0.00286324 0 177313
-0.000440884 0.00514493 0 714.773
0.000455558 0.00477565 0 972.431
0.00520625 0.0221693 0 75.0177
-0.00179507 0.00722781 0 1749.37
5.54873e-005 0.00266826 0 192738
-0.00157971 0.00456195 0 4010.14
4.18607e-005 0.00302762 0 105023
-0.000194972 5.19224e-005 0 397966
-0.000846289 0.00342394 0 5222.34
-0.00105965 0.00823661 0 296.609
0.000163413 0.00479131 0 1055.02
-8.2874e-005 0.00288534 0 174462
0.00157378 0.00552232 0 2281.27
-7.66839e-005 0.00293931 0 161821
0.000101978 0.0109948 0 141.671
-0.000363872 0.00601296 0 486.52
0.000117978 0.00287815 0 178794
0.000219153 0.00318835 0 5994.12
-0.00163196 0.00449872 0 4177.37
-0.000221409 0.00303399 0 3227.89
-0.000370966 0.0244074 0 568.863
-0.000466554 0.00315829 0 3732.14
0.000396164 0.00331941 0 2482.83
-0.00482666 0.0238063 0 79.9785
0.00133411 0.00522841 0 1295.82
-0.00267568 0.00982141 0 1731.25
-0.000480207 0.0219659 0 862.395
0.00177473 0.0106071 0 1096.21
0.000428512 0.00597987 0 515.84
0.00330832 0.0202369 0 145.808
-0.00036699 0.012473 0 457.891
-0.000901486 0.00347959 0 5128.84
-9.70158e-005 0.00294708 0 162544
-0.00110466 0.0144253 0 765.96
-0.00107199 0.0143087 0 745.867
0.000113095 0.0030798 0 22134.8
0.000776547 0.0117402 0 595.134
-0.000196596 0.00302496 0 2997.36
-0.00581483 0.0148124 0 19.0788
0.000125326 0.00308478 0 17368.7
-0.00172589 0.0230235 0 576.835
-0.00123798 0.0114294 0 769.265
-0.000106038 0.00301072 0 10152.3
7.68012e-005 0.00277918 0 186388
-0.000218387 0.00226751 0 202822
0.00288382 0.0120736 0 1202.62
0.000136685 0.00272066 0 192038
0.00126396 0.00994364 0 848.992
0.000169734 0.00323168 0 10056.8
3.33298e-005 0.00296283 0 149011
7.38909e-005 0.00285244 0 178992
0.00226662 0.00684142 0 2504.87
-4.80444e-005 0.00288948 0 171283
0.000117291 0.00304527 0 15009.1
0.00044057 0.00316393 0 3411.48
0.00025781 0.000139806 0 374402
-0.000553437 0.0115383 0 426.329
0.00174054 0.0109254 0 1040.83
-0.00657824 0.0304887 0 156.047
-0.00287878 0.0309438 0 266.539
-1.74214e-005 0.00292383 0 161934
0.000417861 0.00311152 0 3848.96
-0.000158816 0.00302837 0 3137.08
0.000540608 0.00339996 0 1653.77
0.00322243 0.0179545 0 171.862
-0.000159371 0.0013528 0 206926
0.000126077 0.0159893 0 1495.18
-0.00432652 0.0294311 0 253.431
0.0015673 0.00546801 0 2352.43
-5.0904e-005 0.00292621 0 162808
-0.000106737 0.00293051 0 168333
0.00275932 0.0110589 0 1516.96
0.000556951 0.00340784 0 1635.37
0.000399007 0.0063813 0 429.605
-4.55764e-005 0.00288684 0 171721
5.78688e-005 0.00240298 0 200052
-0.00135948 0.0128543 0 835.423
0.00105587 0.00489705 0 614.711
-0.00180772 0.00736401 0 1727.78
8.62884e-005 0.0107917 0 148.4
-1.73838e-005 0.00299616 0 131293
-0.000559779 0.00402893 0 1539.67
-0.000129894 0.00339006 0 8633.38
-0.00108645 0.0209701 0 873.164
-0.000355289 0.00318516 0 2443.09
6.75287e-005 0.00268766 0 191920
-1.6399e-005 0.00282695 0 180057
0.000375645 0.00184967 0 205836
0.000226595 0.00318087 0 5490.93
-0.00157723 0.0197887 0 546.335
0.000153682 0.00302297 0 2630.22
-0.000983791 0.00376429 0 3465.84
0.00320404 0.0139037 0 242.245
-0.000399729 0.0051532 0 784.204
-8.43671e-005 0.0028893 0 173898
0.00153091 0.0204307 0 752.732
0.0023948 0.0125217 0 1265.63
0.000662239 0.00525468 0 660.416
-0.00103759 0.0179087 0 700.51
-0.00194218 0.00558429 0 3319.6
-0.000960129 0.00376594 0 3209.11
-0.000309837 0.00306474 0 3593.98
0.00162461 0.00920594 0 1103.98
0.00346181 0.0203111 0 134.644
0.000412094 0.000782235 0 211536
4.10836e-005 0.00290739 0 167047
0.00107752 0.00513333 0 577.459
-0.00139776 0.00696247 0 766.519
5.83714e-005 0.0023895 0 200315
0.000501828 0.0119171 0 480.44
-2.97555e-005 0.00300349 0 125738
0.00113092 0.00612109 0 403.066
3.11664e-005 0.00285722 0 176253
-0.000756348 0.0223669 0 768.577
0.000606022 0.00322532 0 4504.28
0.00858419 0.0213223 0 23.5775
0.00228739 0.00873166 0 1720.82
-0.00330691 0.0124678 0 100.077
-0.00135503 0.018735 0 531.665
-0.00782909 0.0173425 0 18.118
0.000179373 0.00168518 0 205724
0.000181353 0.0228576 0 762.688
0.00116853 0.00608209 0 417.162
0.00534216 0.0272787 0 212.543
0.000808836 0.00340365 0 4907.47
-0.00176706 0.00728799 0 1713.9
0.000366125 0.00308127 0 4147.23
0.000142062 0.00271694 0 192342
0.000456136 0.0264018 0 470.787
0.000149779 0.00301624 0 2621.28
8.09965e-005 0.015903 0 1496.33
3.07264e-005 0.00286231 0 175447
-0.000148146 0.00339011 0 7961.81
-0.0064378 0.0277565 0 116.726
0.00072806 0.00532362 0 623.949
-0.00065633 0.00335203 0 3357.07
-0.000360464 0.000878987 0 210450
-9.67537e-005 0.00295742 0 159524
-0.000484113 0.00948683 0 187.187
-0.000565445 0.00399845 0 1571.78
0.000588623 0.00111811 0 210282
0.000130395 0.00304539 0 8758.79
0.000107754 0.00285149 0 181054
0.00165731 0.0250536 0 499.077
0.00285988 0.0119675 0 1346.28
-9.54028e-005 0.00428588 0 1712.81
-0.000124414 0.00317156 0 16740.2
-0.00814733 0.0285856 0 52.1587
-0.000216377 0.0031251 0 4700.24
0.00549751 0.012219 0 22.6328
-0.00550796 0.012201 0 20.1856
0.00287309 0.0132504 0 423.468
0.000396043 0.00090361 0 210326
-9.96587e-005 0.00294535 0 163603
-0.00215947 0.00674928 0 2417.32
-0.000289559 0.000893856 0 209689
0.00184728 0.00894591 0 1321.05
-0.000404895 0.00611192 0 467.69
-0.00085135 0.00350535 0 4385.13
3.34633e-006 0.00298331 0 138364
0.00378526 0.0199019 0 129.723
-0.000528492 0.024373 0 586.285
-0.000842118 0.0116133 0 624.243
-0.00298148 0.0188909 0 157.728
5.9556e-005 0.0025331 0 197392
-0.000468824 0.00121303 0 209039
9.1581e-005 0.0171817 0 1825.28
-0.00127026 0.0113439 0 785.313
0.00402234 0.0130084 0 36.6775
-0.000363163 0.00496329 0 914.949
-0.00609252 0.0268039 0 98.7746
0.000283831 0.00172705 0 205917
-0.000884834 0.00452052 0 772.277
0.000104251 0.00312707 0 23670.8
0.00028648 0.000908897 0 209617
0.00627587 0.0218045 0 51.2246
0.000138189 0.00301242 0 2536.99
-8.45766e-005 0.00300744 0 101928
-0.000367296 0.0115469 0 280.478
4.43738e-005 0.00303088 0 100985
0.00481648 0.0179238 0 81.4616
0.00149749 0.00436073 0 4425.32
0.00128386 0.00510424 0 996.27
-0.000137123 0.00279496 0 187711
0.00010392 0.0048879 0 987.514
-0.00091848 7.16259e-005 0 252450
3.54985e-006 0.00298714 0 136274
0.000749152 0.00426831 0 1026.2
-0.000130195 0.00286367 0 181162
0.00513916 0.0264131 0 206.249
-0.00145383 0.00693267 0 995.948
-0.000170314 0.00271408 0 193388
0.000708754 0.00344963 0 2749.24
0.000173403 0.0026398 0 196039
0.00102924 0.00397184 0 2401.2
7.04719e-005 0.00292897 0 164142
-0.000154347 0.00277069 0 190218
0.000152777 0.00306484 0 6641.86
-0.0057264 0.0155753 0 26.7566
-0.00516063 0.0124211 0 18.4901
-0.000727401 0.00332353 0 4351.36
0.00177507 0.00499121 0 3608.17
-0.00104148 0.00729487 0 285.496
8.03056e-005 0.00285902 0 178078
0.000619507 0.00322392 0 4725.54
0.000491741 0.00344599 0 2009.66
-8.64345e-005 0.00319528 0 21548
0.000495863 0.00327729 0 2077.22
0.00629165 0.0165428 0 27.9742
-0.000348261 0.00373379 0 2661.74
0.00695359 0.012557 0 29.4992
-0.00614658 0.0186042 0 42.9827
0.00446424 0.0221677 0 96.8002
-0.000789844 0.00391708 0 1107.24
0.000117774 0.00196522 0 204387
-0.000255362 0.0148691 0 1141.73
-0.00503812 0.0284552 0 232.764
-0.000107009 0.00253653 0 197792
0.000146628 0.00274959 0 191054
0.00773255 0.0309094 0 131.943
0.000159147 0.00499252 0 920.799
0.000514649 0.00313677 0 4156.93
0.00101358 0.00492618 0 624.735
-0.00010231 0.00251506 0 198172
-0.000149253 0.0149017 0 1375.43
-0.0026764 0.0106555 0 1646.48
-0.000401914 0.00497223 0 857.373
-9.9778e-005 0.00250395 0 198458
-0.000167489 0.00307565 0 5734.52
0.00547148 0.0254757 0 90.284
6.86885e-005 0.00304125 0 73603
-0.00443178 0.028435 0 251.375
-9.60567e-005 0.00299261 0 136715
0.00605816 0.0243911 0 61.6658
-0.00166852 0.0218177 0 631.015
3.51271e-005 0.00306949 0 74170.5
0.00934401 0.0252145 0 25.5147
0.000689131 0.0161709 0 1018.71
-0.00185288 0.0231304 0 550.75
-0.000635695 0.0147353 0 678.764
0.000424951 0.000378919 0 266577
3.11571e-005 0.00341221 0 9493.55
-0.00451594 0.0239154 0 87.1352
4.55634e-005 0.00300278 0 125338
-0.000190882 0.0026229 0 197025
-0.00293428 0.0314144 0 269.411
0.000192455 0.0109275 0 143.873
-7.99306e-005 0.00301235 0 97089
-0.000103784 0.019352 0 1436.99
0.000298059 0.00179298 0 205681
0.000318272 0.00306073 0 3521.21
4.79498e-005 0.00267219 0 192583
0.000550505 0.00439983 0 1186.64
-6.64966e-005 0.00296368 0 151416
-0.000353929 0.0037557 0 2624.91
0.00136689 0.00417221 0 4110.33
0.000288631 0.0043673 0 1503.91
-0.000116817 0.00316526 0 18435.2
0.000228982 0.00477361 0 1038.35
-0.00010849 0.00292752 0 169433
0.00158742 0.0252298 0 498.993
0.00029744 0.00214644 0 204130
0.00012001 0.0179918 0 1795.25
-2.8464e-005 0.00302556 0 109326
-0.000121369 0.00301027 0 3334.35
-0.000613293 0.003423 0 1809.35
0.000416492 0.000739339 0 212625
0.00607599 0.0132862 0 27.4895
-0.000118426 0.00301015 0 3345.38
0.000338231 0.0030745 0 3851.5
-0.000760719 0.00047075 0 224211
-0.000159712 0.00339978 0 7722.76
0.00621185 0.0259584 0 59.8995
-0.000407926 0.00403608 0 1749.21
5.21801e-005 0.0048277 0 1054.03
0.00820777 0.0174274 0 22.9335
-0.000651027 0.00328042 0 4248.7
-8.91944e-005 0.00296269 0 156051
-0.000640908 0.0223311 0 786.183
0.00498206 0.0148716 0 39.2761
-0.000133404 0.00280466 0 186735
-0.00284514 0.0101497 0 1866.87
0.00015129 0.00247549 0 199542
0.0036537 0.0164932 0 142.881
0.000170347 0.00269813 0 194324
-0.00192463 0.00759706 0 1762.51
-0.00146113 0.00452985 0 3760.47
0.00164564 0.0109866 0 992.824
0.00153691 0.0307746 0 308.543
0.000402223 0.00321336 0 2176.02
-0.000561587 0.00118082 0 209511
-0.00107178 0.00734408 0 286.546
-4.6988e-005 0.00292472 0 162994
0.000121356 0.00262665 0 195409
-0.00180667 0.021881 0 583.418
-0.000301986 0.0030856 0 3300.84
-0.000116548 0.00289513 0 176494
0.000683718 0.0116885 0 562.55
-0.000354426 0.00170815 0 206285
0.000168525 0.00302989 0 2836.7
0.0016288 0.00554363 0 2365.45
-0.000454254 0.00780077 0 263.471
9.99188e-005 0.00299126 0 139644
-0.000923631 0.00351832 0 5022.81
-0.000513771 0.00531417 0 641.996
-0.000134682 0.0174176 0 1818.59
0.000245462 0.00302872 0 3025.08
-0.00010594 0.00296983 0 154964
0.000263028 0.00390471 0 2558.8
0.000668464 0.00324245 0 4729.43
-0.00016736 0.00267447 0 194800
9.47415e-005 0.00371123 0 4147.03
0.00421743 0.0282356 0 273.194
0.000517536 0.00330043 0 1991.13
7.86006e-005 0.00301308 0 98331.2
-0.00150253 0.0233222 0 597.819
3.50244e-005 0.00343033 0 9395.9
0.00521285 0.0268086 0 211.241
-2.25255e-005 0.00298419 0 137934
0.000210866 0.0048041 0 1005.81
-0.00060708 0.0165096 0 1258.59
0.00212885 0.0061951 0 2853.71
-2.66592e-005 0.00312601 0 48231
-0.00828018 0.0153779 0 29.6888
-0.00170476 0.0244237 0 512.164
-2.90915e-005 0.00298341 0 138425
-0.00185381 0.0061466 0 2496.07
3.45393e-006 0.00277635 0 185353
0.00147734 0.00677235 0 1123.75
0.00789347 0.0314466 0 127.624
-0.00613399 0.0273266 0 120.271
6.50073e-005 0.00218408 0 202759
-0.00147779 0.0231807 0 604.135
-0.000188401 0.00264524 0 196324
-0.00075172 0.0114273 0 553.671
0.00122718 0.0181316 0 559.651
-0.000212778 0.0261997 0 475.922
-0.000849183 0.00348376 0 4597.24
0.00262104 0.0134155 0 629.103
1.27232e-005 0.00293823 0 157202
0.000154311 0.000143575 0 377767
0.00227939 0.00864795 0 1723.01
-0.000341661 0.00336084 0 3499.67
-0.00187213 0.00737965 0 1763.07
-0.000325102 0.00324186 0 3254.19
0.00106283 0.00405371 0 2267.21
0.00306202 0.0160229 0 249.32
-0.00125502 0.0209796 0 797.87
-0.000371653 0.00205944 0 204967
-6.26965e-005 0.00321945 0 21945.5
0.00162374 0.026075 0 451.564
2.10167e-006 0.00278249 0 184711
-0.0055484 0.0286456 0 210.303
0.00015094 0.0013019 0 206938
0.000698722 0.0033001 0 4634.54
-0.000209116 0.00313022 0 5277.13
0.000178301 0.00263421 0 196307
-0.000170601 0.00241911 0 200687
6.51233e-005 0.00278293 0 185719
0.000796117 0.00012178 0 264035
-0.00585119 0.020535 0 54.7075
-0.000609924 0.00122633 0 209291
-0.000102624 0.00304973 0 27813.6
0.00514232 0.0257801 0 148.031
-0.00828702 0.0225688 0 26.3721
-0.000614799 0.00344241 0 1707.39
-0.00151189 0.0188183 0 432.996
-3.25492e-005 0.0029848 0 137592
0.00054607 0.027935 0 377.581
-0.000162612 0.00307065 0 5999.81
0.00170386 0.00536783 0 2861.05
0.000122657 0.00246052 0 199573
0.000114118 0.00372299 0 3980.85
0.000279019 0.00175174 0 205812
-0.00259204 0.0130168 0 807.592
0.0051502 0.0128645 0 19.837
-9.8562e-005 0.00342344 0 8218.6
-0.000685127 0.00529569 0 647.159
-0.000466511 0.00313725 0 3959.38
0.000190709 0.00268308 0 195157
0.000395417 0.00366064 0 2629.41
0.000169582 0.00301879 0 2739.7
-0.00265958 0.00992127 0 1739.98
-0.00519759 0.0137459 0 16.9441
-0.000114222 0.00289247 0 176576
2.13384e-005 0.00287136 0 173718
0.000112396 0.0030073 0 3291.12
-0.000364131 0.0125976 0 467.015
0.000638801 0.0281464 0 378.79
-7.63196e-005 0.00301224 0 100349
0.00647815 0.0133628 0 32.689
0.000321473 0.00338261 0 3793.71
-0.00275906 0.0101546 0 1773.52
-0.00198739 0.00761012 0 1804.88
-0.00766429 0.0300439 0 120.506
-0.000176722 0.00312882 0 8103.04
-0.00800327 0.0218525 0 27.6558
0.00020237 0.00307009 0 3241.58
-0.000414328 0.00346374 0 2562.96
-0.000653425 0.00100717 0 211664
0.000805931 0.0226935 0 753.196
5.17832e-005 0.00318251 0 28373.4
0.000302933 0.0020752 0 204502
4.75096e-005 0.00289494 0 170180
-9.22855e-005 0.00259343 0 195897
-0.00177752 0.00488612 0 3314.08
8.64111e-005 0.00297279 0 150284