# U  FACE_DATA 23640
#  x  y  z  U_x  U_y  U_z  
-0.00296834 0.0159323 0 -607.201 2474.94 0
0.000794309 0.0100339 0 54.2628 2782.54 0
0.00690979 0.0130745 0 481.247 425.34 0
0.000158008 0.0018211 0 -17.6052 129.265 0
-0.000662165 0.0113619 0 326.617 2595.49 0
-0.00203768 0.00587959 0 -499.866 1896.28 0
-0.000220137 0.00748479 0 -139.194 2775.84 0
0.00214531 0.0125841 0 -163.105 2439.11 0
-0.00164167 0.00702341 0 -300.881 2553.31 0
0.00020958 0.00306993 0 2222.57 711.621 0
4.59799e-005 0.00273939 0 -34.5774 434.544 0
0.00075606 0.00524313 0 927.411 2533.64 0
0.00107075 0.0257944 0 280.769 2637.47 0
-0.000458708 0.0115994 0 294.247 2632.98 0
-0.000900467 0.00350322 0 -1242.09 1326.82 0
-0.00222355 0.00655891 0 -467.523 1928.49 0
0.00442703 0.0182294 0 988.586 2414.77 0
7.09705e-005 0.00299924 0 -104.638 1038.06 0
-2.45517e-005 0.00292714 0 42.5252 733.361 0
-0.000543852 0.00394831 0 -1403.51 2152.23 0
7.98376e-005 0.00283498 0 -85.7308 523.78 0
0.00510868 0.0124654 0 676.644 201.232 0
7.37866e-005 0.00284217 0 -82.6479 537.461 0
-0.000122136 0.00287943 0 140.211 507.838 0
0.00117211 0.0120328 0 -320.027 2571.29 0
0.000340217 0.00636002 0 297.636 2726.04 0
-1.62375e-005 0.00331413 0 -99.1996 2113.26 0
0.000288499 0.00391811 0 820.229 2353.15 0
0.00604323 0.0215883 0 1163.53 2407.02 0
0.0015748 0.0199438 0 486.424 2502.15 0
0.000642306 0.0286533 0 140.012 2670.18 0
-0.000788091 0.000235815 0 -6.51736 8.91151 0
8.45076e-005 0.00283429 0 -89.8153 519.532 0
-0.000766033 0.00453527 0 -1304.08 2317.42 0
-0.000556446 0.00360452 0 -1817.34 1640.53 0
-0.000694613 0.00330261 0 -1475.67 1119.38 0
0.00425461 0.0181246 0 977.579 2446.49 0
0.00563158 0.0299784 0 1075.49 2429.08 0
0.00374311 0.0125452 0 1504.17 1073.2 0
-0.000168184 0.00269727 0 93.1528 342.531 0
0.00100487 0.00483203 0 1383.93 2279.58 0
-0.00170325 0.00704586 0 -279.765 2525.4 0
-0.00047461 0.0123053 0 472.914 2632.83 0
-0.00401905 0.0129379 0 -1608.57 1083.95 0
0.000128446 0.00148328 0 -11.1823 84.4403 0
0.000108141 0.00315803 0 921.627 1691.33 0
0.00299545 0.0176096 0 497.222 2571.69 0
0.00122698 0.00708374 0 707.796 2642.51 0
0.000214903 0.00307399 0 2219.81 715.765 0
0.00225142 0.0126586 0 -162.191 2400.57 0
0.000204708 0.00068009 0 3.01587 20.7828 0
4.25297e-005 0.00299727 0 -61.8716 1013.34 0
-0.000477288 0.00315875 0 -1653.74 857.203 0
-0.00378992 0.02149 0 -643.287 2573.93 0
0.000139812 0.00181138 0 -15.553 127.269 0
0.000208917 0.00302796 0 831.483 182.102 0
-0.00160791 0.0049468 0 -796.801 2042.67 0
0.000941143 0.00995448 0 -129.882 2665.36 0
8.9442e-006 0.010956 0 29.7017 2833.04 0
-0.000434056 0.00133506 0 29.8645 93.339 0
0.000566946 0.0289715 0 103.799 2661.89 0
-7.40414e-005 0.003214 0 -580.596 1895.38 0
-0.000145493 0.00239699 0 40.1608 244.267 0
3.42483e-005 0.00298986 0 -57.856 971.924 0
0.000575544 0.00987125 0 239.025 2838.29 0
3.71363e-005 0.00299095 0 -62.1055 978.383 0
-0.00247102 0.00772987 0 -278.002 1901.35 0
0.00096928 0.0118325 0 -349.367 2604.1 0
-9.22697e-005 0.00299969 0 150.946 1050.37 0
-0.000570617 0.0122505 0 455.023 2651.81 0
-0.000211411 0.00254812 0 72.9859 267.932 0
-0.000765289 0.00457715 0 -1250.53 2331.82 0
8.13068e-005 0.00294139 0 -144.575 713.388 0
-0.00437678 0.0203082 0 -869.123 2589.34 0
0.00226862 0.00661101 0 402.354 1912.55 0
-0.000832194 0.000220534 0 -7.09184 12.437 0
-0.000164868 0.00301134 0 -263.248 44.2198 0
0.0012393 0.0259768 0 305.386 2613.75 0
-2.48279e-005 0.00292318 0 42.5881 722.401 0
0.000116572 0.00245177 0 -36.2465 264.61 0
9.77655e-005 0.00313112 0 850.225 1642.21 0
0.000279024 0.00328636 0 1702.28 1528.28 0
-5.75605e-005 0.0116355 0 76.2546 2833.22 0
-7.47936e-005 0.0117342 0 74.7768 2845.29 0
0.000518168 0.00993111 0 215.21 2848.98 0
-0.000154608 0.0030256 0 -1724.51 433.194 0
4.53443e-005 0.00299839 0 -65.2955 1021.67 0
-0.000161071 0.0027724 0 106.506 352.994 0
0.000104836 0.00293916 0 -171.749 633.172 0
-0.00100104 0.00361077 0 -1199.89 1397.49 0
-0.000510005 0.00921774 0 -227.165 2822.27 0
0.00100295 0.0100141 0 -211.808 2613.9 0
-0.000646084 0.00336418 0 -1871.63 1310.63 0
6.96906e-005 0.00293287 0 -121.303 709.976 0
-1.67264e-005 0.00300289 0 19.2836 1039.99 0
0.000173509 0.0227352 0 38.489 2589.2 0
3.17037e-005 0.00298455 0 -56.8842 945.167 0
0.000312244 0.00306502 0 1335.43 361.841 0
-0.00212604 0.00906512 0 -79.5095 2382.2 0
-0.00049218 0.00322389 0 -1967.95 1051.8 0
0.000341345 0.00323843 0 2003.43 1136.5 0
-0.00385942 0.0216496 0 -663.091 2584.36 0
-0.000125834 0.0028813 0 139.43 487.516 0
0.00524627 0.0255212 0 918.504 2516.88 0
0.000713781 0.0036837 0 1953.79 1536.74 0
0.00601727 0.0299149 0 1110.05 2410.67 0
-0.000344095 0.00203632 0 43.532 158.554 0
-0.0047341 0.0239481 0 -788.628 2617.59 0
-0.000460773 0.00539436 0 -551.597 2640.15 0
-0.00196148 0.00905338 0 -50.1794 2449.49 0
0.00143807 0.0303782 0 272.541 2667.46 0
7.94637e-005 0.00293894 0 -139.484 709.536 0
0.00013473 0.00481908 0 223.914 2619.49 0
0.00105264 0.00484794 0 1438.42 2270.14 0
0.000112877 0.0030262 0 1548.28 1300.52 0
-0.00781161 0.0282885 0 -1229.75 2458.6 0
-0.000846622 0.00344471 0 -1298.72 1272.44 0
-0.00206201 0.0306837 0 -382.97 2652.15 0
-0.00313594 0.0160362 0 -652.315 2485.13 0
0.00144289 0.0198776 0 429.504 2488.82 0
-0.000135136 0.00286502 0 124.209 423.643 0
-0.000205101 0.000950881 0 4.93985 35.0725 0
0.000372212 0.00308853 0 1155.26 500.601 0
0.000370404 0.000795868 0 -1.82925 33.4231 0
0.000201681 0.00347815 0 978.611 2103.65 0
-0.000147808 0.00278598 0 111.104 402.218 0
0.000218103 0.000637733 0 3.84374 18.7515 0
0.000195722 0.00313377 0 1800.77 1173.37 0
-0.00203813 0.00594128 0 -471.034 1973.81 0
0.00112067 0.00510142 0 1370.72 2317.63 0
5.16573e-005 0.00373385 0 195.126 2398.39 0
0.000381501 0.00336875 0 1836.34 1488.07 0
0.000860715 0.0258401 0 205.066 2641.43 0
-0.000116556 0.00339842 0 -686.086 2173.54 0
-0.00513668 0.0257477 0 -1011.68 2391.27 0
-0.000162894 0.00277847 0 85.9927 323.95 0
8.27341e-005 0.00277738 0 -70.1216 458.392 0
0.0010674 0.0118759 0 -329.399 2593.12 0
-4.09992e-005 0.00275121 0 32.3021 445.975 0
3.29665e-005 0.00297369 0 -62.8512 893.533 0
-0.00204547 0.0090065 0 -83.0408 2401.93 0
-0.00160474 0.0048986 0 -805.934 2032.87 0
8.25825e-005 0.00294819 0 -152.732 730.183 0
4.00473e-005 0.00273627 0 -29.9342 432.448 0
-9.41642e-005 0.00295571 0 176.708 719.141 0
0.00150619 0.00997327 0 -126.948 2566.94 0
8.22134e-005 0.00268838 0 -50.5728 385.912 0
-0.000160791 0.00267895 0 86.4229 345.235 0
-0.000596112 0.00909085 0 -260.736 2805.52 0
-9.31423e-005 0.00299701 0 187.677 972.429 0
0.00235681 0.0126226 0 -148.615 2378.77 0
0.00203765 0.00557212 0 437.82 1445.81 0
-0.000165794 0.0115731 0 80.1663 2866.37 0
6.0159e-005 0.0021996 0 -11.4584 196.31 0
0.000371981 0.00362464 0 1373.18 2030.78 0
-0.00733688 0.029685 0 -1270.39 2288.25 0
-0.000180414 0.00743151 0 -128.155 2779.37 0
-0.000357207 0.004885 0 -521.123 2602.53 0
0.00253943 0.00813968 0 240.667 2003.12 0
-1.29377e-005 0.00332967 0 -77.7801 2120.85 0
-0.0010235 0.00361199 0 -1145.61 1276.42 0
-0.000285329 0.0030748 0 -1895.61 629.862 0
-0.000681311 0.00329291 0 -1482.24 1107.64 0
-0.00260727 0.00895038 0 -238.734 2033.88 0
0.00788717 0.0276195 0 1158.93 2467.94 0
0.0089704 0.0287411 0 1279.55 2441.53 0
-0.000270534 0.00232157 0 55.7313 205.671 0
-0.00014416 0.00312601 0 -1357.66 1445.6 0
-0.000337662 0.00201762 0 41.5826 157.402 0
0.0003962 0.00337513 0 1851.89 1474.88 0
0.00121317 0.00701782 0 712.333 2642.62 0
0.000116206 0.00302915 0 1686.93 1226.8 0
0.00225197 0.00666935 0 394.768 1913.54 0
-0.000507665 0.00548922 0 -586.725 2638.8 0
-0.000231863 0.00226746 0 46.2598 203.776 0
0.000244361 0.00226851 0 -48.147 201.815 0
0.00111028 0.00505498 0 1378.84 2318.54 0
0.000121223 0.00304184 0 1527.99 1150.65 0
0.00012049 0.00243938 0 -36.6132 260.028 0
-0.0013386 0.0186068 0 -109.476 2611.09 0
0.000102064 0.00149733 0 -9.11904 85.4667 0
0.000147362 0.00301363 0 1034.85 183.833 0
0.00106981 0.0119939 0 -328.823 2591.64 0
-0.000365953 0.00411169 0 -907.309 2410.78 0
0.00557444 0.020358 0 1168.79 2370.87 0
4.86089e-005 0.00307386 0 245.598 1487.56 0
-0.000177413 0.0035472 0 -785.79 2223.57 0
-0.000632994 0.00339325 0 -1986.33 1281.56 0
0.000487307 0.00130985 0 -33.0885 101.405 0
-0.000349424 0.00402777 0 -889.895 2390.63 0
-0.00177251 0.00629586 0 -428.077 2280.17 0
-7.92525e-005 0.00273084 0 56.8018 418.679 0
0.000241714 0.00100077 0 -7.32924 40.7886 0
-0.000154516 0.0114773 0 80.2559 2831.99 0
0.00502442 0.0222916 0 916.374 2588.35 0
-0.000166546 0.00272686 0 103.494 352.768 0
0.000707598 0.00365891 0 1969.55 1516.39 0
-0.00157418 0.0046046 0 -860.464 1855.11 0
0.000122725 0.00301099 0 1437.67 477.948 0
0.000172305 0.00324558 0 1254.26 1741.97 0
7.46185e-006 0.00286175 0 -9.49634 592.891 0
0.00533293 0.0140838 0 1681.46 1222.54 0
0.00520504 0.0284215 0 1085.45 2436.05 0
-0.00170266 0.00713636 0 -277.811 2524.79 0
4.38765e-005 0.00290514 0 -68.3713 666.778 0
0.00035679 0.0099507 0 154.116 2831.59 0
0.000120447 0.00300871 0 1241.38 389.506 0
7.85992e-005 0.00284146 0 -86.8371 533.06 0
0.000146556 0.00306157 0 1810.1 1069.64 0
-0.000265484 0.00230758 0 53.8489 205.594 0
-0.000558184 0.0114136 0 317.186 2602.75 0
0.000873988 0.011905 0 -371.308 2605.57 0
0.00195145 0.0157285 0 8.05124 2499.91 0
0.000415959 0.00988952 0 167.757 2844.22 0
0.00204861 0.00551694 0 448.594 1276.23 0
0.00159497 0.00893937 0 -7.67986 2546.1 0
0.00125366 0.00690066 0 680.839 2609.31 0
-0.000537482 0.00397822 0 -1375.43 2191.01 0
-0.00245206 0.00890865 0 -188.912 2232.98 0
-0.00591638 0.015069 0 -2051.28 1577.19 0
0.00182541 0.0157696 0 -59.9027 2534.93 0
-6.39179e-005 0.00274368 0 48.709 434.395 0
1.24162e-005 0.00286011 0 -15.4717 589.283 0
0.000785526 0.00520879 0 959.403 2515.81 0
0.000119132 0.00288179 0 -140.756 527.22 0
0.000107617 0.00492998 0 153.547 2646.17 0
-0.000398708 0.00617064 0 -366.608 2712.99 0
-0.00031795 0.000861625 0 5.02942 33.7653 0
-0.0054742 0.0145195 0 -1996.99 1490.85 0
-0.00050603 0.0093045 0 -226.158 2822.18 0
-0.00281713 0.0160093 0 -530.853 2521.38 0
-0.00521587 0.0225645 0 -976.109 2640.47 0
0.000631138 0.00410172 0 1402.67 2141.55 0
0.00077675 0.0118594 0 -403.559 2636.26 0
-0.000339893 0.00491785 0 -505.04 2604.83 0
0.000278502 0.0033019 0 1669.62 1583.28 0
-0.000206291 0.0025551 0 73.9773 272.922 0
0.0015782 0.00885327 0 -1.08803 2580.96 0
-0.000601058 0.00917374 0 -258.844 2803.64 0
0.000107852 0.00308374 0 1004.93 1490.32 0
0.000329157 0.00324408 0 1957.4 1187.73 0
-0.000107456 0.0030138 0 -1459.72 1388.78 0
0.000995869 0.00478803 0 1416.17 2267.74 0
-0.00176263 0.00715431 0 -261.809 2477.64 0
0.000133123 0.00190024 0 -16.2738 140.485 0
0.00428452 0.0222831 0 722.796 2584.86 0
0.00249322 0.0134845 0 108.19 2432.97 0
0.000209201 0.00303326 0 1269.42 322.758 0
1.124e-005 0.00241342 0 -3.13782 256.688 0
-0.000138897 0.00282521 0 123.254 436.383 0
-0.000422518 0.00130967 0 28.4485 89.1832 0
0.000897928 0.00602889 0 827.446 2599.47 0
0.00296246 0.0177704 0 496.274 2572.92 0
-0.000240922 0.0022558 0 46.8343 200.553 0
0.000161456 0.0106342 0 52.4479 2838.07 0
-0.000169117 0.00269067 0 90.2353 339.407 0
-0.00600599 0.0132277 0 -1032.96 528.542 0
-0.00498542 0.0226529 0 -899.921 2614.55 0
0.00035646 0.00189436 0 -38.387 142.383 0
0.000360867 0.00193124 0 -40.2962 146.323 0
0.000188008 0.00159518 0 -17.3725 100.417 0
0.00315697 0.0294361 0 622.904 2583.32 0
0.000380728 0.00331446 0 1937.27 1287.55 0
-0.000407732 0.00541329 0 -476.793 2659.12 0
0.00599218 0.0187772 0 1417.39 2187.4 0
-0.000475668 0.0124289 0 480.431 2636.57 0
9.243e-005 0.00339173 0 512.456 2160.54 0
-0.0022067 0.00902531 0 -101.96 2354.42 0
0.000138287 0.010546 0 51.0977 2837.9 0
-4.59787e-005 0.00300592 0 47.2643 1070.87 0
0.000475334 0.00325723 0 2114.49 1000.79 0
0.0081269 0.0233608 0 1415.27 2169.67 0
-0.000136448 0.00286953 0 119.753 401.865 0
0.000465099 0.00132931 0 -31.9238 100.004 0
0.000196949 0.00312437 0 1828.34 1123.35 0
-0.000725979 0.00459524 0 -1198.73 2378.77 0
0.00566025 0.0201173 0 1184.88 2378.84 0
-0.000237093 0.000937504 0 5.53483 35.1736 0
-7.15727e-006 0.00298867 0 11.6433 967.742 0
-0.000556128 0.00552312 0 -609.563 2636.75 0
-0.000151452 0.00278159 0 110.849 392.904 0
0.00604583 0.0167381 0 1762.76 1970.98 0
5.44524e-005 0.00307484 0 297.316 1495.8 0
3.5211e-005 0.00270778 0 -23.768 409.203 0
-0.00210731 0.0068781 0 -388.599 2223.7 0
8.91266e-005 0.00319599 0 699.323 1836.03 0
-0.00242079 0.00974735 0 -84.5828 2323.73 0
0.00135885 0.00413507 0 948.646 1558.91 0
-0.00108228 0.00797081 0 -541.243 2716.79 0
3.29303e-005 0.00271504 0 -22.5083 415.287 0
-0.000508078 0.0208168 0 -201.061 2546.52 0
-0.00472826 0.0198065 0 -986.765 2436.93 0
0.00152826 0.0090827 0 -35.6314 2577.81 0
-0.00252462 0.00897287 0 -222.927 2199.46 0
-4.09377e-005 0.0027578 0 33.1234 452.397 0
-0.00186927 0.0116808 0 202.44 2482.52 0
0.00108447 0.00518193 0 1300.28 2360.62 0
-0.00419392 0.0202211 0 -820.292 2555.17 0
0.000296615 0.00594885 0 296.163 2702.43 0
0.00365557 0.0156923 0 946.706 2329.73 0
-0.000138643 0.00311989 0 -1310.9 1450.34 0
3.44704e-005 0.00298593 0 -61.1191 951.655 0
-0.000249911 0.000891772 0 4.10528 32.6294 0
0.00110337 0.0099601 0 -198.979 2624.76 0
8.04689e-005 0.00279643 0 -73.5664 478.57 0
0.00779157 0.0249956 0 1300.83 2396.95 0
0.000351464 0.00337107 0 1763.7 1558.46 0
-0.00012879 0.00323538 0 -979.694 1852.4 0
0.000155895 0.00168996 0 -15.5712 111.264 0
8.56943e-005 0.00294739 0 -157.033 720.376 0
0.0053023 0.0238774 0 875.718 2583.58 0
0.000238423 0.00318026 0 1808.14 1207.22 0
0.000230406 0.00226533 0 -46.3073 202.824 0
-5.15866e-005 0.00292996 0 89.8635 723.611 0
2.57476e-005 0.00286927 0 -33.7542 602.701 0
0.000105066 0.00340141 0 572.338 2154.57 0
-0.0006343 0.00341198 0 -1991.17 1292.12 0
-0.00683177 0.0130924 0 -620.015 418.752 0
-1.54609e-005 0.00299907 0 19.6881 1019.42 0
-0.00215958 0.00656839 0 -413.744 2096.41 0
0.00301179 0.0141363 0 674.83 2267.04 0
-0.000723924 0.00463742 0 -1189.8 2395.15 0
-0.000555458 0.00358088 0 -1833.21 1616.17 0
0.000287933 0.00394954 0 796.413 2376.25 0
-0.00525881 0.0259389 0 -1031.31 2427.55 0
-0.000235386 0.00314485 0 -1956.39 1049.82 0
-0.000664883 0.00104525 0 35.0999 113.112 0
0.00182857 0.0107598 0 -117.957 2500.62 0
0.00289308 0.0133881 0 551.536 2266.72 0
0.000556851 0.000459359 0 10.0531 14.1807 0
-6.31462e-005 0.00306344 0 -333.365 1458.63 0
0.00204396 0.0126442 0 -184.173 2454.27 0
-0.000369072 0.00408052 0 -920.495 2408.42 0
-0.00018247 0.00378321 0 -607.117 2372.23 0
0.000579156 0.0162179 0 -198.237 2472.31 0
0.00117061 0.0100074 0 -204.526 2617.7 0
0.000129771 0.00301154 0 1286.66 307.5 0
0.00050022 0.00329429 0 2112.81 1064.96 0
-0.00194273 0.0117557 0 195.115 2458.53 0
0.000295066 0.00600891 0 295.322 2702.83 0
-0.000154748 0.0030213 0 -1401.65 348.301 0
8.51353e-005 0.00297491 0 -177.741 819.969 0
0.000370749 0.00364798 0 1347.68 2043.45 0
0.00032381 0.000892659 0 -5.70129 37.3161 0
-0.000114683 0.00273658 0 81.0169 408.622 0
7.10543e-005 0.0030026 0 -89.3144 1071.15 0
-9.6647e-005 0.00324264 0 -724.015 1923.27 0
0.000733896 0.00537107 0 858.573 2557.65 0
0.000155197 0.00494735 0 230.829 2641.61 0
0.000610019 0.00412319 0 1366.96 2183.75 0
0.000353717 0.00194986 0 -40.131 148.228 0
-0.000244432 0.00314026 0 -2004.54 983.414 0
-0.00502653 0.0232658 0 -868.343 2570.84 0
-0.00178789 0.0309983 0 -362.918 2676.45 0
-0.000579723 0.00361754 0 -1822.67 1639.42 0
0.00813841 0.0273314 0 1194.84 2431.75 0
-0.002496 0.0131044 0 -41.6687 2338.39 0
-0.00431729 0.0290645 0 -860.86 2492.69 0
-0.000157683 0.00240005 0 43.2832 243.95 0
-6.09633e-005 0.00273787 0 45.0776 429.421 0
-0.000172602 0.00356894 0 -745.459 2246.99 0
5.95493e-005 0.00280503 0 -57.6712 497.686 0
3.59382e-005 0.00297531 0 -68.5688 899.471 0
0.0038221 0.0156522 0 978.447 2220.11 0
0.00151814 0.00899556 0 -35.9115 2580.13 0
0.00891208 0.0209237 0 1884.99 2047.66 0
0.00932881 0.0247628 0 1526.32 2233.36 0
0.000401147 0.00319889 0 2164.61 899.683 0
-1.37134e-005 0.00292236 0 23.5003 723.387 0
-0.00149883 0.0199029 0 -401.491 2534.25 0
-0.000151382 0.00307642 0 -1722.49 1126.91 0
-9.99299e-005 0.00297786 0 195.69 716.306 0
0.00528439 0.0241343 0 885.829 2613.74 0
2.61097e-005 0.00286432 0 -33.394 593.931 0
0.000206875 0.00349712 0 983.058 2114.4 0
-0.00509797 0.0234717 0 -875.565 2580.87 0
-0.000597722 0.000953511 0 29.008 88.4513 0
-0.00793898 0.0155863 0 -1506.72 1285.69 0
0.00183935 0.0106624 0 -105.777 2500.24 0
7.52069e-005 0.00339368 0 417.093 2182.34 0
-7.77056e-005 0.00294222 0 140.485 724.338 0
-9.8985e-005 0.00297992 0 196.869 733.544 0
0.00161823 0.00911669 0 -21.1637 2543.24 0
8.21842e-005 0.00297527 0 -170.95 832.505 0
-0.00188133 0.00900925 0 -50.8109 2501.55 0
-0.00617827 0.0275965 0 -1139.88 2258.2 0
-0.000490092 0.00321051 0 -1939.85 1035.06 0
0.00945115 0.0288751 0 1334.54 2396.49 0
-0.00016434 0.00272067 0 98.3894 354.071 0
-0.00797941 0.0222445 0 -1508.35 2183.8 0
-4.01564e-005 0.00301654 0 14.6242 1134.08 0
-0.00180498 0.00506765 0 -675.373 1737.51 0
-0.000161305 0.00301261 0 -454.284 77.0282 0
-0.000482063 0.00316965 0 -1741.19 926.217 0
-0.000942791 0.00378901 0 -1507.44 1745.25 0
-0.000134053 0.00282435 0 120.449 450.833 0
0.000242746 0.000963685 0 -6.04401 37.959 0
0.00525461 0.0274919 0 1130.03 2396.34 0
0.00306352 0.0179257 0 527.265 2575.71 0
-0.000120066 0.00324295 0 -904.495 1879.26 0
-0.00319507 0.0125029 0 -1163.95 1637.56 0
-0.000290892 0.00233844 0 59.0701 200.599 0
0.00159844 0.00482417 0 783.815 1975.32 0
0.00787978 0.0236538 0 1382.39 2300.78 0
0.00145057 0.0259009 0 369.028 2608.27 0
-0.000336257 0.00619409 0 -293.72 2723.19 0
-0.000333917 0.00172186 0 30.8794 122.976 0
0.00577509 0.0216659 0 1128.33 2451.79 0
0.000667048 0.00332313 0 1660.02 1286.38 0
0.00248969 0.00807562 0 265.421 2106.85 0
-0.00160944 0.00467215 0 -811.264 1849.37 0
1.98969e-005 0.00242157 0 -5.91095 259.5 0
0.000286635 0.0021356 0 -44.1009 175.326 0
-0.00161117 0.00618199 0 -487.973 2378.23 0
7.54635e-005 0.00268391 0 -46.035 384.195 0
0.00101663 0.00497361 0 1347.22 2339.49 0
9.78423e-005 0.00320089 0 759.997 1824.72 0
-0.000282098 0.0245537 0 -100.386 2631.06 0
0.00160534 0.0053807 0 686.734 2207.84 0
0.000645555 0.00426047 0 1310.74 2241.88 0
0.000344665 0.00191282 0 -38.2854 144.628 0
-4.37224e-005 0.0030135 0 23.6559 1118.23 0
0.000410526 0.00592784 0 399.24 2696.86 0
-0.00161438 0.00462874 0 -815.294 1711.24 0
0.000197339 0.00307463 0 2169.46 777.513 0
-0.00787948 0.0250527 0 -1284.64 2379.75 0
0.000365567 0.000836364 0 -3.96155 36.0111 0
0.000428529 0.0031113 0 1146.62 500.687 0
6.29689e-005 0.00280138 0 -60.3811 491.589 0
-0.00260928 0.0115127 0 62.7061 2224.47 0
0.00511854 0.0182191 0 1196.89 2259.6 0
-0.000191506 0.0013612 0 13.6838 72.555 0
0.000255298 0.00234631 0 -56.4569 214.116 0
7.80872e-005 0.00285378 0 -90.5233 549.581 0
-6.93966e-006 0.00361778 0 -20.5084 2353 0
-0.000112834 0.00273034 0 77.6929 404.904 0
-0.000151306 0.00308356 0 -1658.38 1181.94 0
0.000794921 0.00339323 0 1339.66 1241.79 0
0.000120559 0.00308016 0 1192.16 1421.96 0
-0.00060963 0.000994212 0 31.4634 98.1283 0
-0.000187211 0.00375918 0 -643.04 2346.34 0
-0.000179749 0.00239602 0 48.2469 239.914 0
0.000583853 0.00320912 0 1350.46 920.965 0
-0.000220391 0.00307379 0 -2131.2 681.947 0
-3.20721e-005 0.00313154 0 -232.182 1694.54 0
-0.00240166 0.00829286 0 -235.024 2192.1 0
-0.000107553 0.0032363 0 -821.473 1889.62 0
0.000485775 0.00324734 0 2074.88 1043.75 0
-1.6528e-005 0.00283252 0 18.2279 544.871 0
0.000388916 0.00319175 0 2166.98 896.535 0
-0.000191501 0.000101552 0 -0.203995 0.666058 0
-0.00244196 0.00780076 0 -280.396 2014.88 0
-0.000237142 0.00223825 0 44.716 197.552 0
-0.00179252 0.00511195 0 -711.098 1873.46 0
7.86645e-005 0.00300926 0 -24.5646 1164.92 0
-0.00578012 0.0268724 0 -1165.54 2380.06 0
-0.00101007 0.00801211 0 -534.704 2733.49 0
0.000363332 0.00337974 0 1764.27 1555.17 0
0.000391279 0.00186159 0 -38.8638 139.086 0
0.000433244 0.00317308 0 2005.5 975.097 0
0.00161612 0.00543442 0 671.629 2220.4 0
-0.00207993 0.00693738 0 -383.969 2232.41 0
0.000483914 0.00474879 0 747.809 2529.24 0
0.000802557 6.40842e-005 0 0.248862 0.118736 0
0.00066144 0.00330597 0 1637.52 1242.33 0
0.00141767 0.0197289 0 419.084 2495.42 0
-0.000651775 0.00329699 0 -1656.21 1188.02 0
0.000282152 0.00304241 0 540.836 102.251 0
-0.000357054 0.00319624 0 -2135.85 944.578 0
-0.00178284 0.00623412 0 -436.29 2270.88 0
3.8992e-005 0.00380209 0 143.065 2438.82 0
-0.00100109 0.0210667 0 -367.859 2525.01 0
0.000165033 0.00158259 0 -15.2547 97.7789 0
0.00864187 0.0174253 0 1771.04 1614.13 0
0.00315453 0.0128329 0 903.646 2352.15 0
-8.64597e-005 0.00318341 0 -706.278 1803.69 0
-0.000259494 0.0126492 0 468.218 2657.02 0
0.000466396 0.000355167 0 4.45643 4.11785 0
0.000246728 0.00318708 0 1825.01 1198.82 0
-0.000724122 0.000493878 0 2.66935 48.8998 0
-0.00236534 0.0089472 0 -139.729 2298.86 0
-0.00585899 0.0184819 0 -1371.18 2086.15 0
-0.000109395 0.00425783 0 -221.093 2546.24 0
-0.000225082 0.00307869 0 -2142.77 699.224 0
0.00116126 0.00383867 0 1085.82 1558.03 0
0.000146244 0.00305529 0 1908.85 1026.67 0
0.000106639 0.00285591 0 -119.018 524.176 0
0.00516349 0.0142403 0 1835.52 1480.17 0
-0.000547118 0.0281975 0 -135.432 2666.27 0
-0.00314055 0.0188201 0 -573.516 2614.38 0
6.39205e-005 0.0034062 0 350.755 2191.98 0
0.000746714 0.00049437 0 -5.66516 54.5362 0
0.00226648 0.0258744 0 575.637 2569.05 0
-0.000137355 0.00283875 0 115.086 440.339 0
0.00173233 0.0108179 0 -150.692 2527.42 0
-0.000334456 0.00625618 0 -292.823 2723.07 0
-0.000652252 0.00338145 0 -1895.34 1327.77 0
-6.89277e-005 0.00306466 0 -402.613 1477.68 0
0.000126795 0.00304178 0 1788.4 1230.64 0
0.00478399 0.0277755 0 1030.75 2458.58 0
0.000516287 0.0229306 0 148.001 2583.7 0
5.89116e-005 0.00254342 0 -23.7843 306.806 0
-0.00795861 0.0246948 0 -1291.37 2350.76 0
0.00133689 0.00999394 0 -165.454 2598.71 0
-0.000118825 0.0220921 0 -60.8854 2568.44 0
6.34909e-005 0.0107046 0 42.0315 2833.86 0
-0.000946741 0.00381309 0 -1531.93 1829.92 0
0.00581241 0.0241952 0 974.236 2497.79 0
-0.00487736 0.01991 0 -1006.2 2452.25 0
0.00170829 0.0256098 0 447.499 2601.92 0
9.98067e-005 0.00316224 0 838.394 1723.72 0
0.00308063 0.0142797 0 678.652 2259.26 0
-0.000279242 0.00307977 0 -1997.86 665.337 0
-0.000183934 0.00303725 0 -1903.31 481.013 0
7.83288e-005 0.00286324 0 -94.8476 563.757 0
-0.000440884 0.00514493 0 -576.141 2646.39 0
0.000455558 0.00477565 0 699.894 2546.13 0
0.00520625 0.0221693 0 964.124 2546.96 0
-0.00179507 0.00722781 0 -254.012 2433.84 0
5.54873e-005 0.00266826 0 -32.5089 377.253 0
-0.00157971 0.00456195 0 -868.272 1750.91 0
4.18607e-005 0.00302762 0 19.1875 1204.82 0
-0.000194972 5.19224e-005 0 -0.0886746 0.316511 0
-0.000846289 0.00342394 0 -1140.34 1144.66 0
-0.00105965 0.00823661 0 -460.312 2723.55 0
0.000163413 0.00479131 0 273.634 2622.12 0
-8.2874e-005 0.00288534 0 111.26 594.243 0
0.00157378 0.00552232 0 638.459 2282.28 0
-7.66839e-005 0.00293931 0 135.712 717.435 0
0.000101978 0.0109948 0 50.6187 2840.22 0
-0.000363872 0.00601296 0 -335.21 2714.77 0
0.000117978 0.00287815 0 -138.028 527.338 0
0.000219153 0.00318835 0 1693.92 1329.11 0
-0.00163196 0.00449872 0 -424.791 715.092 0
-0.000221409 0.00303399 0 -1045.93 262.889 0
-0.000370966 0.0244074 0 -125.879 2625.64 0
-0.000466554 0.00315829 0 -1732.08 891.957 0
0.000396164 0.00331941 0 1961.66 1269.9 0
-0.00482666 0.0238063 0 -795.535 2576.09 0
0.00133411 0.00522841 0 970.796 2434.77 0
-0.00267568 0.00982141 0 -79.0193 1934.23 0
-0.000480207 0.0219659 0 -186.354 2563.26 0
0.00177473 0.0106071 0 -120.514 2517.93 0
0.000428512 0.00597987 0 401.129 2696.1 0
0.00330832 0.0202369 0 558.554 2634.65 0
-0.00036699 0.012473 0 477.237 2646.8 0
-0.000901486 0.00347959 0 -1168.74 1176.27 0
-9.70158e-005 0.00294708 0 172.376 688 0
-0.00110466 0.0144253 0 462.937 2580.18 0
-0.00107199 0.0143087 0 462.119 2588.84 0
0.000113095 0.0030798 0 1075.48 1457.44 0
0.000776547 0.0117402 0 -394.224 2638.6 0
-0.000196596 0.00302496 0 -880.692 187.072 0
-0.00581483 0.0148124 0 -2027.39 1548.23 0
0.000125326 0.00308478 0 1254.66 1404.46 0
-0.00172589 0.0230235 0 -557.872 2537.13 0
-0.00123798 0.0114294 0 292.726 2634.08 0
-0.000106038 0.00301072 0 -1415.44 1389.36 0
7.68012e-005 0.00277918 0 -65.8767 462.862 0
-0.000218387 0.00226751 0 44.0982 204.889 0
0.00288382 0.0120736 0 47.6632 1690.58 0
0.000136685 0.00272066 0 -88.2034 384.303 0
0.00126396 0.00994364 0 -168.105 2603.32 0
0.000169734 0.00323168 0 1273.14 1717.64 0
3.33298e-005 0.00296283 0 -64.195 847.447 0
7.38909e-005 0.00285244 0 -85.468 550.447 0
0.00226662 0.00684142 0 408.236 2062.43 0
-4.80444e-005 0.00288948 0 69.0594 631.674 0
0.000117291 0.00304527 0 1371.58 1292.53 0
0.00044057 0.00316393 0 1952.85 961.055 0
0.00025781 0.000139806 0 0.496031 0.887777 0
-0.000553437 0.0115383 0 316.701 2597.03 0
0.00174054 0.0109254 0 -156.017 2527.33 0
-0.00657824 0.0304887 0 -1169.24 2371.79 0
-0.00287878 0.0309438 0 -536.83 2632.06 0
-1.74214e-005 0.00292383 0 29.9779 726.471 0
0.000417861 0.00311152 0 1354.61 582.235 0
-0.000158816 0.00302837 0 -1821.82 432.458 0
0.000540608 0.00339996 0 2080.18 1238.33 0
0.00322243 0.0179545 0 630.247 2584.33 0
-0.000159371 0.0013528 0 11.1879 69.9928 0
0.000126077 0.0159893 0 1.11514 2490.38 0
-0.00432652 0.0294311 0 -857.517 2493.28 0
0.0015673 0.00546801 0 641.591 2283.05 0
-5.0904e-005 0.00292621 0 87.127 714.546 0
-0.000106737 0.00293051 0 167.238 612.068 0
0.00275932 0.0110589 0 25.9888 2139.58 0
0.000556951 0.00340784 0 2072.34 1229.55 0
0.000399007 0.0063813 0 338.191 2726.89 0
-4.55764e-005 0.00288684 0 64.0702 627.331 0
5.78688e-005 0.00240298 0 -16.6376 252.088 0
-0.00135948 0.0128543 0 360.356 2602.43 0
0.00105587 0.00489705 0 1406.48 2290.66 0
-0.00180772 0.00736401 0 -249.744 2461.26 0
8.62884e-005 0.0107917 0 40.5399 2836.84 0
-1.73838e-005 0.00299616 0 25.1714 1003.81 0
-0.000559779 0.00402893 0 -1371.52 2174.05 0
-0.000129894 0.00339006 0 -759.479 2131.35 0
-0.00108645 0.0209701 0 -372.291 2524.84 0
-0.000355289 0.00318516 0 -2136.14 905.698 0
6.75287e-005 0.00268766 0 -41.8713 388.707 0
-1.6399e-005 0.00282695 0 17.8816 537.499 0
0.000375645 0.00184967 0 -37.7947 137.86 0
0.000226595 0.00318087 0 1755.05 1255.21 0
-0.00157723 0.0197887 0 -363.952 2607.45 0
0.000153682 0.00302297 0 1613.56 445.993 0
-0.000983791 0.00376429 0 -1418.41 1759.41 0
0.00320404 0.0139037 0 784.032 2194.13 0
-0.000399729 0.0051532 0 -513.328 2636.38 0
-8.43671e-005 0.0028893 0 116.232 599.431 0
0.00153091 0.0204307 0 495.257 2438.46 0
0.0023948 0.0125217 0 -140.346 2380.97 0
0.000662239 0.00525468 0 809.313 2548.89 0
-0.00103759 0.0179087 0 9.11046 2628.21 0
-0.00194218 0.00558429 0 -554.682 1933.33 0
-0.000960129 0.00376594 0 -1471.14 1763.79 0
-0.000309837 0.00306474 0 -1210.77 447.729 0
0.00162461 0.00920594 0 -17.2571 2542.89 0
0.00346181 0.0203111 0 600.422 2628.62 0
0.000412094 0.000782235 0 -2.19931 35.5768 0
4.10836e-005 0.00290739 0 -64.6964 673.645 0
0.00107752 0.00513333 0 1304.18 2361.94 0
-0.00139776 0.00696247 0 -472.866 2594.46 0
5.83714e-005 0.0023895 0 -16.1904 247.835 0
0.000501828 0.0119171 0 -426.013 2592.4 0
-2.97555e-005 0.00300349 0 35.6526 1046.87 0
0.00113092 0.00612109 0 976.996 2563.42 0
3.11664e-005 0.00285722 0 -38.4995 580.435 0
-0.000756348 0.0223669 0 -279.759 2563.44 0
0.000606022 0.00322532 0 1379.08 929.125 0
0.00858419 0.0213223 0 1769.7 2088.52 0
0.00228739 0.00873166 0 166.56 2341.78 0
-0.00330691 0.0124678 0 -1287.78 1481.85 0
-0.00135503 0.018735 0 -111.406 2598.49 0
-0.00782909 0.0173425 0 -2009.68 1705.59 0
0.000179373 0.00168518 0 -17.6197 111.355 0
0.000181353 0.0228576 0 38.9388 2589.74 0
0.00116853 0.00608209 0 1006.65 2543.64 0
0.00534216 0.0272787 0 1140.53 2393.63 0
0.000808836 0.00340365 0 1315.28 1251.49 0
-0.00176706 0.00728799 0 -252.646 2462.59 0
0.000366125 0.00308127 0 1012.28 426.36 0
0.000142062 0.00271694 0 -89.9961 378.36 0
0.000456136 0.0264018 0 91.5562 2642.34 0
0.000149779 0.00301624 0 1194.68 267.272 0
8.09965e-005 0.015903 0 3.07106 2492.94 0
3.07264e-005 0.00286231 0 -38.8878 589.109 0
-0.000148146 0.00339011 0 -860.587 2106.85 0
-0.0064378 0.0277565 0 -1269.33 2481.49 0
0.00072806 0.00532362 0 862.471 2556.41 0
-0.00065633 0.00335203 0 -1792.75 1288.38 0
-0.000360464 0.000878987 0 7.42548 37.9042 0
-9.67537e-005 0.00295742 0 180.903 712.615 0
-0.000484113 0.00948683 0 -192.515 2857.3 0
-0.000565445 0.00399845 0 -1386.39 2157.85 0
0.000588623 0.00111811 0 -34.3034 106.186 0
0.000130395 0.00304539 0 1773 1201.03 0
0.000107754 0.00285149 0 -117.589 517.56 0
0.00165731 0.0250536 0 436.467 2590.21 0
0.00285988 0.0119675 0 -23.9821 1657.09 0
-9.54028e-005 0.00428588 0 -186.884 2551.07 0
-0.000124414 0.00317156 0 -1053.38 1696.25 0
-0.00814733 0.0285856 0 -1224.23 2445.73 0
-0.000216377 0.0031251 0 -1937.32 1024.94 0
0.00549751 0.012219 0 269.762 84.3097 0
-0.00550796 0.012201 0 -286.041 76.13 0
0.00287309 0.0132504 0 531.602 2240.59 0
0.000396043 0.00090361 0 -9.13025 44.0021 0
-9.96587e-005 0.00294535 0 174.504 673.493 0
-0.00215947 0.00674928 0 -441.257 2140.58 0
-0.000289559 0.000893856 0 5.35484 34.6895 0
0.00184728 0.00894591 0 53.8572 2487.12 0
-0.000404895 0.00611192 0 -367.969 2713.31 0
-0.00085135 0.00350535 0 -1436.82 1462.88 0
3.34633e-006 0.00298331 0 -5.68097 942.675 0
0.00378526 0.0199019 0 709.041 2598.67 0
-0.000528492 0.024373 0 -173.817 2625.2 0
-0.000842118 0.0116133 0 381.154 2638.39 0
-0.00298148 0.0188909 0 -515.869 2612.39 0
5.9556e-005 0.0025331 0 -23.3907 302.461 0
-0.000468824 0.00121303 0 28.9694 86.9927 0
9.1581e-005 0.0171817 0 -1.66286 2440.08 0
-0.00127026 0.0113439 0 284.147 2636.71 0
0.00402234 0.0130084 0 1614.78 1162.72 0
-0.000363163 0.00496329 0 -507.429 2603.37 0
-0.00609252 0.0268039 0 -1110.83 2411.86 0
0.000283831 0.00172705 0 -27.6986 120.963 0
-0.000884834 0.00452052 0 -1443.06 2238.77 0
0.000104251 0.00312707 0 914.708 1621.73 0
0.00028648 0.000908897 0 -5.23737 36.3182 0
0.00627587 0.0218045 0 1198.72 2393.79 0
0.000138189 0.00301242 0 1130.29 208.703 0