# p  FACE_DATA 23640
#  x  y  z  p
-0.00296834 0.0159323 0 20.9665
0.000794309 0.0100339 0 102.227
0.00690979 0.0130745 0 6.8832
0.000158008 0.0018211 0 30277
-0.000662165 0.0113619 0 88.7502
-0.00203768 0.00587959 0 417.791
-0.000220137 0.00748479 0 38.5154
0.00214531 0.0125841 0 116.27
-0.00164167 0.00702341 0 264.95
0.00020958 0.00306993 0 756.946
4.59799e-005 0.00273939 0 27669.8
0.00075606 0.00524313 0 79.3722
0.00107075 0.0257944 0 33.6082
-0.000458708 0.0115994 0 82.5394
-0.000900467 0.00350322 0 668.742
-0.00222355 0.00655891 0 365.327
0.00442703 0.0182294 0 10.1779
7.09705e-005 0.00299924 0 16810.2
-2.45517e-005 0.00292714 0 23232.4
-0.000543852 0.00394831 0 236.27
7.98376e-005 0.00283498 0 26425.9
0.00510868 0.0124654 0 5.71243
7.37866e-005 0.00284217 0 26230.3
-0.000122136 0.00287943 0 25816
0.00117211 0.0120328 0 122.351
0.000340217 0.00636002 0 57.9293
-1.62375e-005 0.00331413 0 1941.86
0.000288499 0.00391811 0 313.011
0.00604323 0.0215883 0 13.7008
0.0015748 0.0199438 0 71.8301
0.000642306 0.0286533 0 27.064
-0.000788091 0.000235815 0 65622.8
8.45076e-005 0.00283429 0 26467.4
-0.000766033 0.00453527 0 123.99
-0.000556446 0.00360452 0 304.918
-0.000694613 0.00330261 0 701.614
0.00425461 0.0181246 0 10.8135
0.00563158 0.0299784 0 17.5226
0.00374311 0.0125452 0 12.4116
-0.000168184 0.00269727 0 28490.7
0.00100487 0.00483203 0 122.892
-0.00170325 0.00704586 0 268.144
-0.00047461 0.0123053 0 98.3968
-0.00401905 0.0129379 0 10.5169
0.000128446 0.00148328 0 30571.2
0.000108141 0.00315803 0 2807.05
0.00299545 0.0176096 0 18.1388
0.00122698 0.00708374 0 154.071
0.000214903 0.00307399 0 735.526
0.00225142 0.0126586 0 100.5
0.000204708 0.00068009 0 56123.2
4.25297e-005 0.00299727 0 18018.2
-0.000477288 0.00315875 0 696.244
-0.00378992 0.02149 0 30.8279
0.000139812 0.00181138 0 30279.1
0.000208917 0.00302796 0 710.526
-0.00160791 0.0049468 0 502.306
0.000941143 0.00995448 0 113.021
8.9442e-006 0.010956 0 52.2234
-0.000434056 0.00133506 0 31290.2
0.000566946 0.0289715 0 25.8059
-7.40414e-005 0.003214 0 2878.43
-0.000145493 0.00239699 0 29598.9
3.42483e-005 0.00298986 0 18975.7
0.000575544 0.00987125 0 70.2671
3.71363e-005 0.00299095 0 18824.6
-0.00247102 0.00772987 0 293.999
0.00096928 0.0118325 0 111.209
-9.22697e-005 0.00299969 0 13560.4
-0.000570617 0.0122505 0 92.7035
-0.000211411 0.00254812 0 29304.6
-0.000765289 0.00457715 0 120.691
8.13068e-005 0.00294139 0 23105.6
-0.00437678 0.0203082 0 18.9847
0.00226862 0.00661101 0 350.602
-0.000832194 0.000220534 0 62955.2
-0.000164868 0.00301134 0 732.991
0.0012393 0.0259768 0 32.2806
-2.48279e-005 0.00292318 0 23444.8
0.000116572 0.00245177 0 29405.2
9.77655e-005 0.00313112 0 3415.15
0.000279024 0.00328636 0 700.227
-5.75605e-005 0.0116355 0 121.677
-7.47936e-005 0.0117342 0 127.526
0.000518168 0.00993111 0 67.2331
-0.000154608 0.0030256 0 841.063
4.53443e-005 0.00299839 0 17859.7
-0.000161071 0.0027724 0 27780.9
0.000104836 0.00293916 0 23576.1
-0.00100104 0.00361077 0 699.927
-0.000510005 0.00921774 0 41.4299
0.00100295 0.0100141 0 116.549
-0.000646084 0.00336418 0 660.289
6.96906e-005 0.00293287 0 23313.2
-1.67264e-005 0.00300289 0 17847.8
0.000173509 0.0227352 0 59.6338
3.17037e-005 0.00298455 0 19486
0.000312244 0.00306502 0 692.552
-0.00212604 0.00906512 0 229.552
-0.00049218 0.00322389 0 675.791
0.000341345 0.00323843 0 559.083
-0.00385942 0.0216496 0 30.6833
-0.000125834 0.0028813 0 25758.2
0.00524627 0.0255212 0 19.1061
0.000713781 0.0036837 0 380.467
0.00601727 0.0299149 0 16.018
-0.000344095 0.00203632 0 30276.6
-0.0047341 0.0239481 0 21.2814
-0.000460773 0.00539436 0 84.7713
-0.00196148 0.00905338 0 216.262
0.00143807 0.0303782 0 23.4415
7.94637e-005 0.00293894 0 23187
0.00013473 0.00481908 0 135.572
0.00105264 0.00484794 0 148.035
0.000112877 0.0030262 0 1813.5
-0.00781161 0.0282885 0 11.7956
-0.000846622 0.00344471 0 668.969
-0.00206201 0.0306837 0 22.1482
-0.00313594 0.0160362 0 19.142
0.00144289 0.0198776 0 77.2528
-0.000135136 0.00286502 0 26300.9
-0.000205101 0.000950881 0 33237.2
0.000372212 0.00308853 0 653.427
0.000370404 0.000795868 0 39403.5
0.000201681 0.00347815 0 749.249
-0.000147808 0.00278598 0 27432.3
0.000218103 0.000637733 0 60707
0.000195722 0.00313377 0 961.883
-0.00203813 0.00594128 0 418.035
0.00112067 0.00510142 0 157.372
5.16573e-005 0.00373385 0 509.851
0.000381501 0.00336875 0 453.207
0.000860715 0.0258401 0 34.8237
-0.000116556 0.00339842 0 1178.29
-0.00513668 0.0257477 0 19.6959
-0.000162894 0.00277847 0 27760.2
8.27341e-005 0.00277738 0 27329.3
0.0010674 0.0118759 0 116.962
-4.09992e-005 0.00275121 0 27533.9
3.29665e-005 0.00297369 0 20422.2
-0.00204547 0.0090065 0 226.029
-0.00160474 0.0048986 0 506.162
8.25825e-005 0.00294819 0 22708
4.00473e-005 0.00273627 0 27695.9
-9.41642e-005 0.00295571 0 22364.8
0.00150619 0.00997327 0 161.719
8.22134e-005 0.00268838 0 28238.7
-0.000160791 0.00267895 0 28563.3
-0.000596112 0.00909085 0 49.4664
-9.31423e-005 0.00299701 0 15009.3
0.00235681 0.0126226 0 93.8304
0.00203765 0.00557212 0 445.932
-0.000165794 0.0115731 0 92.9374
6.0159e-005 0.0021996 0 29865.8
0.000371981 0.00362464 0 399.623
-0.00733688 0.029685 0 13.9349
-0.000180414 0.00743151 0 39.0055
-0.000357207 0.004885 0 119.532
0.00253943 0.00813968 0 271.011
-1.29377e-005 0.00332967 0 1918.7
-0.0010235 0.00361199 0 691.87
-0.000285329 0.0030748 0 698.65
-0.000681311 0.00329291 0 682.096
-0.00260727 0.00895038 0 246.426
0.00788717 0.0276195 0 11.9504
0.0089704 0.0287411 0 10.4408
-0.000270534 0.00232157 0 29944.2
-0.00014416 0.00312601 0 1869.76
-0.000337662 0.00201762 0 30297.3
0.0003962 0.00337513 0 453.567
0.00121317 0.00701782 0 146.808
0.000116206 0.00302915 0 1661.58
0.00225197 0.00666935 0 332.19
-0.000507665 0.00548922 0 80.5612
-0.000231863 0.00226746 0 29924.9
0.000244361 0.00226851 0 29935.1
0.00111028 0.00505498 0 161.945
0.000121223 0.00304184 0 1759.24
0.00012049 0.00243938 0 29451.4
-0.0013386 0.0186068 0 89.4318
0.000102064 0.00149733 0 30557.2
0.000147362 0.00301363 0 806.553
0.00106981 0.0119939 0 117.471
-0.000365953 0.00411169 0 244.212
0.00557444 0.020358 0 8.87395
4.86089e-005 0.00307386 0 8687.26
-0.000177413 0.0035472 0 711.587
-0.000632994 0.00339325 0 645.446
0.000487307 0.00130985 0 31494.2
-0.000349424 0.00402777 0 271.851
-0.00177251 0.00629586 0 356.143
-7.92525e-005 0.00273084 0 27852.9
0.000241714 0.00100077 0 32370.9
-0.000154516 0.0114773 0 89.4741
0.00502442 0.0222916 0 21.4834
-0.000166546 0.00272686 0 28303.7
0.000707598 0.00365891 0 391.698
-0.00157418 0.0046046 0 558.781
0.000122725 0.00301099 0 1097.32
0.000172305 0.00324558 0 1350.45
7.46185e-006 0.00286175 0 25513.5
0.00533293 0.0140838 0 8.67981
0.00520504 0.0284215 0 18.3805
-0.00170266 0.00713636 0 266.776
4.38765e-005 0.00290514 0 24269.6
0.00035679 0.0099507 0 39.303
0.000120447 0.00300871 0 1168.52
7.85992e-005 0.00284146 0 26294.9
0.000146556 0.00306157 0 1140.41
-0.000265484 0.00230758 0 29956
-0.000558184 0.0114136 0 83.4801
0.000873988 0.011905 0 105.332
0.00195145 0.0157285 0 37.1145
0.000415959 0.00988952 0 42.89
0.00204861 0.00551694 0 463.528
0.00159497 0.00893937 0 190.987
0.00125366 0.00690066 0 162.867
-0.000537482 0.00397822 0 227.458
-0.00245206 0.00890865 0 251.204
-0.00591638 0.015069 0 6.53402
0.00182541 0.0157696 0 39.5152
-6.39179e-005 0.00274368 0 27642.2
1.24162e-005 0.00286011 0 25578.4
0.000785526 0.00520879 0 81.2454
0.000119132 0.00288179 0 25760.2
0.000107617 0.00492998 0 126.754
-0.000398708 0.00617064 0 58.8858
-0.00031795 0.000861625 0 36359.7
-0.0054742 0.0145195 0 6.98065
-0.00050603 0.0093045 0 41.9012
-0.00281713 0.0160093 0 22.2126
-0.00521587 0.0225645 0 18.9017
0.000631138 0.00410172 0 180.307
0.00077675 0.0118594 0 99.4432
-0.000339893 0.00491785 0 118.054
0.000278502 0.0033019 0 691.764
-0.000206291 0.0025551 0 29193.7
0.0015782 0.00885327 0 188.895
-0.000601058 0.00917374 0 50.6108
0.000107852 0.00308374 0 3223.96
0.000329157 0.00324408 0 571.188
-0.000107456 0.0030138 0 2080.18
0.000995869 0.00478803 0 123.629
-0.00176263 0.00715431 0 276.804
0.000133123 0.00190024 0 30206
0.00428452 0.0222831 0 27.0198
0.00249322 0.0134845 0 50.0493
0.000209201 0.00303326 0 724.614
1.124e-005 0.00241342 0 29448.7
-0.000138897 0.00282521 0 27063.6
-0.000422518 0.00130967 0 31410.6
0.000897928 0.00602889 0 60.9684
0.00296246 0.0177704 0 18.0045
-0.000240922 0.0022558 0 29943.2
0.000161456 0.0106342 0 42.4333
-0.000169117 0.00269067 0 28576.6
-0.00600599 0.0132277 0 4.34342
-0.00498542 0.0226529 0 20.0319
0.00035646 0.00189436 0 30327.6
0.000360867 0.00193124 0 30295.6
0.000188008 0.00159518 0 30490.4
0.00315697 0.0294361 0 22.9539
0.000380728 0.00331446 0 485.719
-0.000407732 0.00541329 0 86.2118
0.00599218 0.0187772 0 7.13104
-0.000475668 0.0124289 0 98.1934
9.243e-005 0.00339173 0 1315.24
-0.0022067 0.00902531 0 234.677
0.000138287 0.010546 0 41.0177
-4.59787e-005 0.00300592 0 16867.9
0.000475334 0.00325723 0 626.955
0.0081269 0.0233608 0 9.90441
-0.000136448 0.00286953 0 26313.4
0.000465099 0.00132931 0 31429.9
0.000196949 0.00312437 0 927.215
-0.000725979 0.00459524 0 127.043
0.00566025 0.0201173 0 8.22147
-0.000237093 0.000937504 0 33413.2
-7.15727e-006 0.00298867 0 19226.3
-0.000556128 0.00552312 0 77.1347
-0.000151452 0.00278159 0 27615.4
0.00604583 0.0167381 0 7.94211
5.44524e-005 0.00307484 0 8286.04
3.5211e-005 0.00270778 0 27971.1
-0.00210731 0.0068781 0 341.4
8.91266e-005 0.00319599 0 2901.76
-0.00242079 0.00974735 0 218.331
0.00135885 0.00413507 0 599.639
-0.00108228 0.00797081 0 114.251
3.29303e-005 0.00271504 0 27884.9
-0.000508078 0.0208168 0 79.2549
-0.00472826 0.0198065 0 10.5978
0.00152826 0.0090827 0 178.607
-0.00252462 0.00897287 0 253.301
-4.09377e-005 0.0027578 0 27447.1
-0.00186927 0.0116808 0 155.809
0.00108447 0.00518193 0 126.071
-0.00419392 0.0202211 0 19.626
0.000296615 0.00594885 0 68.8154
0.00365557 0.0156923 0 15.2465
-0.000138643 0.00311989 0 1978.2
3.44704e-005 0.00298593 0 19341.9
-0.000249911 0.000891772 0 35447.5
0.00110337 0.0099601 0 128.276
8.04689e-005 0.00279643 0 27036.2
0.00779157 0.0249956 0 11.298
0.000351464 0.00337107 0 499.597
-0.00012879 0.00323538 0 1869.53
0.000155895 0.00168996 0 30393
8.56943e-005 0.00294739 0 22816
0.0053023 0.0238774 0 19.9984
0.000238423 0.00318026 0 775.201
0.000230406 0.00226533 0 29919.4
-5.15866e-005 0.00292996 0 23246.2
2.57476e-005 0.00286927 0 25355.1
0.000105066 0.00340141 0 1244.96
-0.0006343 0.00341198 0 622.291
-0.00683177 0.0130924 0 3.91301
-1.54609e-005 0.00299907 0 18235.3
-0.00215958 0.00656839 0 370.96
0.00301179 0.0141363 0 25.297
-0.000723924 0.00463742 0 124.839
-0.000555458 0.00358088 0 320.085
0.000287933 0.00394954 0 298.016
-0.00525881 0.0259389 0 19.3018
-0.000235386 0.00314485 0 757.875
-0.000664883 0.00104525 0 33826.8
0.00182857 0.0107598 0 172.889
0.00289308 0.0133881 0 34.9402
0.000556851 0.000459359 0 58483.5
-6.31462e-005 0.00306344 0 8413
0.00204396 0.0126442 0 119.207
-0.000369072 0.00408052 0 247.859
-0.00018247 0.00378321 0 422.324
0.000579156 0.0162179 0 177.751
0.00117061 0.0100074 0 131.894
0.000129771 0.00301154 0 916.286
0.00050022 0.00329429 0 596.854
-0.00194273 0.0117557 0 153.301
0.000295066 0.00600891 0 68.5879
-0.000154748 0.0030213 0 805.008
8.51353e-005 0.00297491 0 20523.7
0.000370749 0.00364798 0 386.772
0.00032381 0.000892659 0 36658.5
-0.000114683 0.00273658 0 27918.8
7.10543e-005 0.0030026 0 16070.4
-9.6647e-005 0.00324264 0 2226.57
0.000733896 0.00537107 0 81.7252
0.000155197 0.00494735 0 118.847
0.000610019 0.00412319 0 187.638
0.000353717 0.00194986 0 30295
-0.000244432 0.00314026 0 723.708
-0.00502653 0.0232658 0 20.0271
-0.00178789 0.0309983 0 21.9376
-0.000579723 0.00361754 0 306.663
0.00813841 0.0273314 0 11.6286
-0.002496 0.0131044 0 60.74
-0.00431729 0.0290645 0 20.0253
-0.000157683 0.00240005 0 29608.6
-6.09633e-005 0.00273787 0 27736.5
-0.000172602 0.00356894 0 686.242
5.95493e-005 0.00280503 0 26825.6
3.59382e-005 0.00297531 0 20280.8
0.0038221 0.0156522 0 14.023
0.00151814 0.00899556 0 177.985
0.00891208 0.0209237 0 6.25157
0.00932881 0.0247628 0 8.66222
0.000401147 0.00319889 0 646.598
-1.37134e-005 0.00292236 0 23455.5
-0.00149883 0.0199029 0 70.2955
-0.000151382 0.00307642 0 1224.02
-9.99299e-005 0.00297786 0 20079.7
0.00528439 0.0241343 0 19.6046
2.61097e-005 0.00286432 0 25490
0.000206875 0.00349712 0 708.776
-0.00509797 0.0234717 0 20.1512
-0.000597722 0.000953511 0 34540.8
-0.00793898 0.0155863 0 5.11166
0.00183935 0.0106624 0 172.827
7.52069e-005 0.00339368 0 1319.37
-7.77056e-005 0.00294222 0 22872.7
-9.8985e-005 0.00297992 0 19787.5
0.00161823 0.00911669 0 185.393
8.21842e-005 0.00297527 0 20460.2
-0.00188133 0.00900925 0 206.677
-0.00617827 0.0275965 0 15.8894
-0.000490092 0.00321051 0 677.81
0.00945115 0.0288751 0 9.78644
-0.00016434 0.00272067 0 28446.6
-0.00797941 0.0222445 0 6.91505
-4.01564e-005 0.00301654 0 15848.1
-0.00180498 0.00506765 0 498.21
-0.000161305 0.00301261 0 757.5
-0.000482063 0.00316965 0 686.091
-0.000942791 0.00378901 0 602.098
-0.000134053 0.00282435 0 27009.4
0.000242746 0.000963685 0 34444.7
0.00525461 0.0274919 0 18.6452
0.00306352 0.0179257 0 18.0603
-0.000120066 0.00324295 0 1919.25
-0.00319507 0.0125029 0 26.4884
-0.000290892 0.00233844 0 29976.5
0.00159844 0.00482417 0 536.378
0.00787978 0.0236538 0 10.4224
0.00145057 0.0259009 0 34.4315
-0.000336257 0.00619409 0 58.2643
-0.000333917 0.00172186 0 30521.4
0.00577509 0.0216659 0 15.5169
0.000667048 0.00332313 0 665.336
0.00248969 0.00807562 0 275.191
-0.00160944 0.00467215 0 559.495
1.98969e-005 0.00242157 0 29437.8
0.000286635 0.0021356 0 30131.3
-0.00161117 0.00618199 0 330.025
7.54635e-005 0.00268391 0 28261.3
0.00101663 0.00497361 0 112.434
9.78423e-005 0.00320089 0 2692.29
-0.000282098 0.0245537 0 40.8958
0.00160534 0.0053807 0 436.345
0.000645555 0.00426047 0 162.988
0.000344665 0.00191282 0 30310
-4.37224e-005 0.0030135 0 16017.6
0.000410526 0.00592784 0 66.7896
-0.00161438 0.00462874 0 560.008
0.000197339 0.00307463 0 794.176
-0.00787948 0.0250527 0 10.2829
0.000365567 0.000836364 0 37339.1
0.000428529 0.0031113 0 666.052
6.29689e-005 0.00280138 0 26909.9
-0.00260928 0.0115127 0 167.964
0.00511854 0.0182191 0 8.44865
-0.000191506 0.0013612 0 30786.7
0.000255298 0.00234631 0 29789.7
7.80872e-005 0.00285378 0 26069.7
-6.93966e-006 0.00361778 0 712.133
-0.000112834 0.00273034 0 27976.8
-0.000151306 0.00308356 0 1275.58
0.000794921 0.00339323 0 680.157
0.000120559 0.00308016 0 2437.07
-0.00060963 0.000994212 0 34180.4
-0.000187211 0.00375918 0 446.044
-0.000179749 0.00239602 0 29650.9
0.000583853 0.00320912 0 677.322
-0.000220391 0.00307379 0 765.717
-3.20721e-005 0.00313154 0 6134.26
-0.00240166 0.00829286 0 257.991
-0.000107553 0.0032363 0 2128.04
0.000485775 0.00324734 0 643.322
-1.6528e-005 0.00283252 0 26179.2
0.000388916 0.00319175 0 647.782
-0.000191501 0.000101552 0 85761
-0.00244196 0.00780076 0 280.72
-0.000237142 0.00223825 0 29981.5
-0.00179252 0.00511195 0 498.965
7.86645e-005 0.00300926 0 13368.9
-0.00578012 0.0268724 0 17.4882
-0.00101007 0.00801211 0 94.5858
0.000363332 0.00337974 0 495.601
0.000391279 0.00186159 0 30375.9
0.000433244 0.00317308 0 661.115
0.00161612 0.00543442 0 429.103
-0.00207993 0.00693738 0 320.179
0.000483914 0.00474879 0 129.163
0.000802557 6.40842e-005 0 73100.2
0.00066144 0.00330597 0 662.157
0.00141767 0.0197289 0 78.6972
-0.000651775 0.00329699 0 687.396
0.000282152 0.00304241 0 682.195
-0.000357054 0.00319624 0 625.575
-0.00178284 0.00623412 0 367.93
3.8992e-005 0.00380209 0 472.046
-0.00100109 0.0210667 0 71.1463
0.000165033 0.00158259 0 30506.4
0.00864187 0.0174253 0 7.49691
0.00315453 0.0128329 0 28.644
-8.64597e-005 0.00318341 0 3079.51
-0.000259494 0.0126492 0 155.525
0.000466396 0.000355167 0 71276.4
0.000246728 0.00318708 0 775.158
-0.000724122 0.000493878 0 47860.7
-0.00236534 0.0089472 0 248.355
-0.00585899 0.0184819 0 6.76832
-0.000109395 0.00425783 0 234.65
-0.000225082 0.00307869 0 744.416
0.00116126 0.00383867 0 655.736
0.000146244 0.00305529 0 1101.14
0.000106639 0.00285591 0 26230
0.00516349 0.0142403 0 8.78292
-0.000547118 0.0281975 0 28.2525
-0.00314055 0.0188201 0 21.8817
6.39205e-005 0.0034062 0 1224.73
0.000746714 0.00049437 0 48743.2
0.00226648 0.0258744 0 30.2087
-0.000137355 0.00283875 0 26825.9
0.00173233 0.0108179 0 165.675
-0.000334456 0.00625618 0 56.2181
-0.000652252 0.00338145 0 654.51
-6.89277e-005 0.00306466 0 7636.73
0.000126795 0.00304178 0 1508.51
0.00478399 0.0277755 0 19.7181
0.000516287 0.0229306 0 56.9904
5.89116e-005 0.00254342 0 29025.4
-0.00795861 0.0246948 0 10.2882
0.00133689 0.00999394 0 148.194
-0.000118825 0.0220921 0 68.0382
6.34909e-005 0.0107046 0 44.0676
-0.000946741 0.00381309 0 591.447
0.00581241 0.0241952 0 16.4974
-0.00487736 0.01991 0 10.2639
0.00170829 0.0256098 0 34.5909
9.98067e-005 0.00316224 0 3013.1
0.00308063 0.0142797 0 24.1684
-0.000279242 0.00307977 0 696.618
-0.000183934 0.00303725 0 782.066
7.83288e-005 0.00286324 0 25766.2
-0.000440884 0.00514493 0 94.7988
0.000455558 0.00477565 0 126.099
0.00520625 0.0221693 0 20.61
-0.00179507 0.00722781 0 277.678
5.54873e-005 0.00266826 0 28338.3
-0.00157971 0.00456195 0 565.671
4.18607e-005 0.00302762 0 14356.9
-0.000194972 5.19224e-005 0 86634.1
-0.000846289 0.00342394 0 670.927
-0.00105965 0.00823661 0 110.529
0.000163413 0.00479131 0 137.414
-8.2874e-005 0.00288534 0 25234
0.00157378 0.00552232 0 388.733
-7.66839e-005 0.00293931 0 23034.5
0.000101978 0.0109948 0 66.2848
-0.000363872 0.00601296 0 62.1048
0.000117978 0.00287815 0 25925.5
0.000219153 0.00318835 0 888.089
-0.00163196 0.00449872 0 570.969
-0.000221409 0.00303399 0 723.644
-0.000370966 0.0244074 0 42.9609
-0.000466554 0.00315829 0 703.523
0.000396164 0.00331941 0 479.055
-0.00482666 0.0238063 0 21.2457
0.00133411 0.00522841 0 323.883
-0.00267568 0.00982141 0 207.34
-0.000480207 0.0219659 0 67.2171
0.00177473 0.0106071 0 170.213
0.000428512 0.00597987 0 66.6571
0.00330832 0.0202369 0 32.4427
-0.00036699 0.012473 0 113.571
-0.000901486 0.00347959 0 671.162
-9.70158e-005 0.00294708 0 22962.5
-0.00110466 0.0144253 0 93.4189
-0.00107199 0.0143087 0 94.9722
0.000113095 0.0030798 0 2920.21
0.000776547 0.0117402 0 99.2644
-0.000196596 0.00302496 0 717.142
-0.00581483 0.0148124 0 6.6206
0.000125326 0.00308478 0 2271.98
-0.00172589 0.0230235 0 47.0836
-0.00123798 0.0114294 0 128.71
-0.000106038 0.00301072 0 2361.33
7.68012e-005 0.00277918 0 27280
-0.000218387 0.00226751 0 29926.1
0.00288382 0.0120736 0 86.2752
0.000136685 0.00272066 0 28128.3
0.00126396 0.00994364 0 141.715
0.000169734 0.00323168 0 1391.13
3.33298e-005 0.00296283 0 21259.7
7.38909e-005 0.00285244 0 26063
0.00226662 0.00684142 0 346.272
-4.80444e-005 0.00288948 0 24860.9
0.000117291 0.00304527 0 2020.89
0.00044057 0.00316393 0 683.102
0.00025781 0.000139806 0 83103.8
-0.000553437 0.0115383 0 83.9967
0.00174054 0.0109254 0 164.933
-0.00657824 0.0304887 0 14.8378
-0.00287878 0.0309438 0 20.9422
-1.74214e-005 0.00292383 0 23393.6
0.000417861 0.00311152 0 667.472
-0.000158816 0.00302837 0 830.322
0.000540608 0.00339996 0 486.907
0.00322243 0.0179545 0 16.4578
-0.000159371 0.0013528 0 30755.2
0.000126077 0.0159893 0 222.311
-0.00432652 0.0294311 0 20.0739
0.0015673 0.00546801 0 395.852
-5.0904e-005 0.00292621 0 23436.1
-0.000106737 0.00293051 0 23858.8
0.00275932 0.0110589 0 186.445
0.000556951 0.00340784 0 501.737
0.000399007 0.0063813 0 55.7093
-4.55764e-005 0.00288684 0 24914.6
5.78688e-005 0.00240298 0 29479.6
-0.00135948 0.0128543 0 122.597
0.00105587 0.00489705 0 143.038
-0.00180772 0.00736401 0 264.454
8.62884e-005 0.0107917 0 44.7807
-1.73838e-005 0.00299616 0 18530.2
-0.000559779 0.00402893 0 212.668
-0.000129894 0.00339006 0 1149.27
-0.00108645 0.0209701 0 72.6844
-0.000355289 0.00318516 0 646.378
6.75287e-005 0.00268766 0 28194.4
-1.6399e-005 0.00282695 0 26302.2
0.000375645 0.00184967 0 30389
0.000226595 0.00318087 0 846.757
-0.00157723 0.0197887 0 70.228
0.000153682 0.00302297 0 814.571
-0.000983791 0.00376429 0 649.297
0.00320404 0.0139037 0 24.3597
-0.000399729 0.0051532 0 100.803
-8.43671e-005 0.0028893 0 25134.6
0.00153091 0.0204307 0 70.6636
0.0023948 0.0125217 0 98.6169
0.000662239 0.00525468 0 88.2187
-0.00103759 0.0179087 0 110.101
-0.00194218 0.00558429 0 447.203
-0.000960129 0.00376594 0 616.946
-0.000309837 0.00306474 0 684.998
0.00162461 0.00920594 0 186.707
0.00346181 0.0203111 0 31.0347
0.000412094 0.000782235 0 39113
4.10836e-005 0.00290739 0 24168.3
0.00107752 0.00513333 0 125.861
-0.00139776 0.00696247 0 208.122
5.83714e-005 0.0023895 0 29519.4
0.000501828 0.0119171 0 93.9816
-2.97555e-005 0.00300349 0 17627.4
0.00113092 0.00612109 0 100.622
3.11664e-005 0.00285722 0 25682.7
-0.000756348 0.0223669 0 61.3259
0.000606022 0.00322532 0 679.073
0.00858419 0.0213223 0 6.35632
0.00228739 0.00873166 0 239.54
-0.00330691 0.0124678 0 21.0364
-0.00135503 0.018735 0 88.9473
-0.00782909 0.0173425 0 5.08171
0.000179373 0.00168518 0 30414.9
0.000181353 0.0228576 0 59.0177
0.00116853 0.00608209 0 110.545
0.00534216 0.0272787 0 18.924
0.000808836 0.00340365 0 684.956
-0.00176706 0.00728799 0 268.282
0.000366125 0.00308127 0 664.776
0.000142062 0.00271694 0 28196.8
0.000456136 0.0264018 0 32.5548
0.000149779 0.00301624 0 783.987
8.09965e-005 0.015903 0 224.211
3.07264e-005 0.00286231 0 25554.1
-0.000148146 0.00339011 0 1096.27
-0.0064378 0.0277565 0 15.8379
0.00072806 0.00532362 0 81.8299
-0.00065633 0.00335203 0 664.131
-0.000360464 0.000878987 0 34874.2
-9.67537e-005 0.00295742 0 22276.1
-0.000484113 0.00948683 0 44.3994
-0.000565445 0.00399845 0 221.442
0.000588623 0.00111811 0 33050.9
0.000130395 0.00304539 0 1412.48
0.000107754 0.00285149 0 26340.7
0.00165731 0.0250536 0 36.4716
0.00285988 0.0119675 0 104.543
-9.54028e-005 0.00428588 0 230.858
-0.000124414 0.00317156 0 2258.4
-0.00814733 0.0285856 0 11.639
-0.000216377 0.0031251 0 806.349
0.00549751 0.012219 0 5.07261
-0.00550796 0.012201 0 3.51873
0.00287309 0.0132504 0 36.3395
0.000396043 0.00090361 0 35166.5
-9.96587e-005 0.00294535 0 23114.6
-0.00215947 0.00674928 0 350.922
-0.000289559 0.000893856 0 34621.8
0.00184728 0.00894591 0 213.768
-0.000404895 0.00611192 0 59.8489
-0.00085135 0.00350535 0 662.534
3.34633e-006 0.00298331 0 19682
0.00378526 0.0199019 0 21.3683
-0.000528492 0.024373 0 44.2623
-0.000842118 0.0116133 0 100.259
-0.00298148 0.0188909 0 27.929
5.9556e-005 0.0025331 0 29069.2
-0.000468824 0.00121303 0 31869.1
9.1581e-005 0.0171817 0 183.138
-0.00127026 0.0113439 0 129.565
0.00402234 0.0130084 0 11.0444
-0.000363163 0.00496329 0 110.55
-0.00609252 0.0268039 0 16.0219
0.000283831 0.00172705 0 30447.8
-0.000884834 0.00452052 0 131.502
0.000104251 0.00312707 0 3195.73
0.00028648 0.000908897 0 36934.9
0.00627587 0.0218045 0 13.566
0.000138189 0.00301242 0 849.271
-8.45766e-005 0.00300744 0 12694.7
-0.000367296 0.0115469 0 77.9014
4.43738e-005 0.00303088 0 13803.5
0.00481648 0.0179238 0 9.18378
0.00149749 0.00436073 0 589.084
0.00128386 0.00510424 0 309.689
-0.000137123 0.00279496 0 27399.5
0.00010392 0.0048879 0 126.922
-0.00091848 7.16259e-005 0 68128
3.54985e-006 0.00298714 0 19358.6
0.000749152 0.00426831 0 154.825
-0.000130195 0.00286367 0 26346.7
0.00513916 0.0264131 0 19.401
-0.00145383 0.00693267 0 224.835
-0.000170314 0.00271408 0 28442.4
0.000708754 0.00344963 0 639.624
0.000173403 0.0026398 0 28799.4
0.00102924 0.00397184 0 561.269
7.04719e-005 0.00292897 0 23531.1
-0.000154347 0.00277069 0 27758.9
0.000152777 0.00306484 0 1074.28
-0.0057264 0.0155753 0 6.8142
-0.00516063 0.0124211 0 4.37059
-0.000727401 0.00332353 0 680.386
0.00177507 0.00499121 0 517.633
-0.00104148 0.00729487 0 93.3979
8.03056e-005 0.00285902 0 25886.4
0.000619507 0.00322392 0 676.858
0.000491741 0.00344599 0 386.609
-8.64345e-005 0.00319528 0 2928.6
0.000495863 0.00327729 0 619.57
0.00629165 0.0165428 0 7.99202
-0.000348261 0.00373379 0 370.727
0.00695359 0.012557 0 6.42861
-0.00614658 0.0186042 0 6.48481
0.00446424 0.0221677 0 25.7007
-0.000789844 0.00391708 0 269.65
0.000117774 0.00196522 0 30146.7
-0.000255362 0.0148691 0 230.734
-0.00503812 0.0284552 0 19.3498
-0.000107009 0.00253653 0 29128.8
0.000146628 0.00274959 0 27981.3
0.00773255 0.0309094 0 12.6097
0.000159147 0.00499252 0 119.025
0.000514649 0.00313677 0 666.998
0.00101358 0.00492618 0 118.976
-0.00010231 0.00251506 0 29189
-0.000149253 0.0149017 0 234.288
-0.0026764 0.0106555 0 193.29
-0.000401914 0.00497223 0 107.612
-9.9778e-005 0.00250395 0 29238.3
-0.000167489 0.00307565 0 964.469
0.00547148 0.0254757 0 18.4901
6.86885e-005 0.00304125 0 9706.37
-0.00443178 0.028435 0 20.6149
-9.60567e-005 0.00299261 0 17008.2
0.00605816 0.0243911 0 15.9868
-0.00166852 0.0218177 0 57.7557
3.51271e-005 0.00306949 0 10056.1
0.00934401 0.0252145 0 8.80972
0.000689131 0.0161709 0 163.35
-0.00185288 0.0231304 0 44.9498
-0.000635695 0.0147353 0 187.015
0.000424951 0.000378919 0 71979.6
3.11571e-005 0.00341221 0 1249.89
-0.00451594 0.0239154 0 22.6691
4.55634e-005 0.00300278 0 17345.6
-0.000190882 0.0026229 0 29009.7
-0.00293428 0.0314144 0 20.9569
0.000192455 0.0109275 0 68.1999
-7.99306e-005 0.00301235 0 12351
-0.000103784 0.019352 0 107.662
0.000298059 0.00179298 0 30390.6
0.000318272 0.00306073 0 689.056
4.79498e-005 0.00267219 0 28313.2
0.000550505 0.00439983 0 155.163
-6.64966e-005 0.00296368 0 21303.2
-0.000353929 0.0037557 0 356.681
0.00136689 0.00417221 0 604.8
0.000288631 0.0043673 0 191.238
-0.000116817 0.00316526 0 2499.05
0.000228982 0.00477361 0 135.831
-0.00010849 0.00292752 0 24116
0.00158742 0.0252298 0 36.0898
0.00029744 0.00214644 0 30129.1
0.00012001 0.0179918 0 148.839
-2.8464e-005 0.00302556 0 15210.3
-0.000121369 0.00301027 0 1094.65
-0.000613293 0.003423 0 583.11
0.000416492 0.000739339 0 41466
0.00607599 0.0132862 0 6.45084
-0.000118426 0.00301015 0 1122.93
0.000338231 0.0030745 0 670.646
-0.000760719 0.00047075 0 48739.1
-0.000159712 0.00339978 0 1046.38
0.00621185 0.0259584 0 15.6488
-0.000407926 0.00403608 0 240.721
5.21801e-005 0.0048277 0 135.49
0.00820777 0.0174274 0 7.442
-0.000651027 0.00328042 0 673.482
-8.91944e-005 0.00296269 0 21741.5
-0.000640908 0.0223311 0 62.4733
0.00498206 0.0148716 0 9.66281
-0.000133404 0.00280466 0 27206.3
-0.00284514 0.0101497 0 199.811
0.00015129 0.00247549 0 29408.4
0.0036537 0.0164932 0 14.7939
0.000170347 0.00269813 0 28650.3
-0.00192463 0.00759706 0 265.409
-0.00146113 0.00452985 0 571.204
0.00164564 0.0109866 0 157.662
0.00153691 0.0307746 0 23.5412
0.000402223 0.00321336 0 628.169
-0.000561587 0.00118082 0 32261.9
-0.00107178 0.00734408 0 94.9469
-4.6988e-005 0.00292472 0 23477.6
0.000121356 0.00262665 0 28758.4
-0.00180667 0.021881 0 55.3003
-0.000301986 0.0030856 0 695.244
-0.000116548 0.00289513 0 25462.1
0.000683718 0.0116885 0 95.351
-0.000354426 0.00170815 0 30545.5
0.000168525 0.00302989 0 778.14
0.0016288 0.00554363 0 414.338
-0.000454254 0.00780077 0 33.8936
9.99188e-005 0.00299126 0 17793.8
-0.000923631 0.00351832 0 684.939
-0.000513771 0.00531417 0 83.8708
-0.000134682 0.0174176 0 166.261
0.000245462 0.00302872 0 684.587
-0.00010594 0.00296983 0 21571.8
0.000263028 0.00390471 0 334.298
0.000668464 0.00324245 0 667.475
-0.00016736 0.00267447 0 28618
9.47415e-005 0.00371123 0 556.717
0.00421743 0.0282356 0 21.3114
0.000517536 0.00330043 0 610.378
7.86006e-005 0.00301308 0 12461.8
-0.00150253 0.0233222 0 47.6711
3.50244e-005 0.00343033 0 1233.09
0.00521285 0.0268086 0 18.9337
-2.25255e-005 0.00298419 0 19552.7
0.000210866 0.0048041 0 131.839
-0.00060708 0.0165096 0 170.848
0.00212885 0.0061951 0 396.389
-2.66592e-005 0.00312601 0 6549.31
-0.00828018 0.0153779 0 4.89026
-0.00170476 0.0244237 0 38.6507
-2.90915e-005 0.00298341 0 19588.5
-0.00185381 0.0061466 0 393.51
3.45393e-006 0.00277635 0 27156.5
0.00147734 0.00677235 0 234.025
0.00789347 0.0314466 0 12.5582
-0.00613399 0.0273266 0 15.9957
6.50073e-005 0.00218408 0 29893
-0.00147779 0.0231807 0 49.0993
-0.000188401 0.00264524 0 28877.1
-0.00075172 0.0114273 0 94.6227
0.00122718 0.0181316 0 99.0667
-0.000212778 0.0261997 0 32.8527
-0.000849183 0.00348376 0 662.023
0.00262104 0.0134155 0 45.9169
1.27232e-005 0.00293823 0 22649
0.000154311 0.000143575 0 84080.8
0.00227939 0.00864795 0 237.256
-0.000341661 0.00336084 0 521.701
-0.00187213 0.00737965 0 268.715
-0.000325102 0.00324186 0 584.462
0.00106283 0.00405371 0 544.351
0.00306202 0.0160229 0 21.2949
-0.00125502 0.0209796 0 70.0585
-0.000371653 0.00205944 0 30299.9
-6.26965e-005 0.00321945 0 2952.35
0.00162374 0.026075 0 33.1207
2.10167e-006 0.00278249 0 27055.7
-0.0055484 0.0286456 0 18.4537
0.00015094 0.0013019 0 30729.7
0.000698722 0.0033001 0 676.242
-0.000209116 0.00313022 0 855.509
0.000178301 0.00263421 0 28858.1
-0.000170601 0.00241911 0 29587.4
6.51233e-005 0.00278293 0 27185.2
0.000796117 0.00012178 0 70960.4
-0.00585119 0.020535 0 8.88092
-0.000609924 0.00122633 0 32048.1
-0.000102624 0.00304973 0 3679.25
0.00514232 0.0257801 0 19.2514
-0.00828702 0.0225688 0 6.83608
-0.000614799 0.00344241 0 557.002
-0.00151189 0.0188183 0 81.3256
-3.25492e-005 0.0029848 0 19434.7
0.00054607 0.027935 0 27.469
-0.000162612 0.00307065 0 1007.8
0.00170386 0.00536783 0 454.45
0.000122657 0.00246052 0 29411.3
0.000114118 0.00372299 0 528.286
0.000279019 0.00175174 0 30417.5
-0.00259204 0.0130168 0 57.6878
0.0051502 0.0128645 0 6.63033
-9.8562e-005 0.00342344 0 1126.11
-0.000685127 0.00529569 0 85.0111
-0.000466511 0.00313725 0 684.425
0.000190709 0.00268308 0 28691
0.000395417 0.00366064 0 371.01
0.000169582 0.00301879 0 733.81
-0.00265958 0.00992127 0 205.654
-0.00519759 0.0137459 0 7.33329
-0.000114222 0.00289247 0 25570.2
2.13384e-005 0.00287136 0 25284
0.000112396 0.0030073 0 1400.35
-0.000364131 0.0125976 0 117.625
0.000638801 0.0281464 0 27.9077
-7.63196e-005 0.00301224 0 13001.2
0.00647815 0.0133628 0 6.94589
0.000321473 0.00338261 0 561.275
-0.00275906 0.0101546 0 197.081
-0.00198739 0.00761012 0 274.072
-0.00766429 0.0300439 0 13.2399
-0.000176722 0.00312882 0 1184.56
-0.00800327 0.0218525 0 6.24465
0.00020237 0.00307009 0 787.705
-0.000414328 0.00346374 0 404.08
-0.000653425 0.00100717 0 34357.4
0.000805931 0.0226935 0 59.0644