# rho  FACE_DATA 23640
#  x  y  z  rho
-0.00296834 0.0159323 0 4.22505e-005
0.000794309 0.0100339 0 0.000248913
0.00690979 0.0130745 0 6.03166e-006
0.000158008 0.0018211 0 0.0244634
-0.000662165 0.0113619 0 0.000218244
-0.00203768 0.00587959 0 0.000371559
-0.000220137 0.00748479 0 0.000122084
0.00214531 0.0125841 0 0.00016476
-0.00164167 0.00702341 0 0.000518686
0.00020958 0.00306993 0 0.000829634
4.59799e-005 0.00273939 0 0.0225067
0.00075606 0.00524313 0 0.00021958
0.00107075 0.0257944 0 0.000100613
-0.000458708 0.0115994 0 0.00020672
-0.000900467 0.00350322 0 0.000542129
-0.00222355 0.00655891 0 0.000323883
0.00442703 0.0182294 0 2.26943e-005
7.09705e-005 0.00299924 0 0.0150813
-2.45517e-005 0.00292714 0 0.0195634
-0.000543852 0.00394831 0 0.000522091
7.98376e-005 0.00283498 0 0.0216654
0.00510868 0.0124654 0 5.45603e-006
7.37866e-005 0.00284217 0 0.0215371
-0.000122136 0.00287943 0 0.0209378
0.00117211 0.0120328 0 0.000264981
0.000340217 0.00636002 0 0.00016943
-1.62375e-005 0.00331413 0 0.00279051
0.000288499 0.00391811 0 0.000654746
0.00604323 0.0215883 0 3.0042e-005
0.0015748 0.0199438 0 0.00016535
0.000642306 0.0286533 0 8.47081e-005
-0.000788091 0.000235815 0 0.0530393
8.45076e-005 0.00283429 0 0.0216875
-0.000766033 0.00453527 0 0.00031373
-0.000556446 0.00360452 0 0.00062754
-0.000694613 0.00330261 0 0.000562497
0.00425461 0.0181246 0 2.39735e-005
0.00563158 0.0299784 0 5.26751e-005
0.00374311 0.0125452 0 1.32582e-005
-0.000168184 0.00269727 0 0.0229419
0.00100487 0.00483203 0 0.000307194
-0.00170325 0.00704586 0 0.000513217
-0.00047461 0.0123053 0 0.000234545
-0.00401905 0.0129379 0 1.16149e-005
0.000128446 0.00148328 0 0.024757
0.000108141 0.00315803 0 0.00367913
0.00299545 0.0176096 0 3.95525e-005
0.00122698 0.00708374 0 0.000347926
0.000214903 0.00307399 0 0.000817567
0.00225142 0.0126586 0 0.000139531
0.000204708 0.00068009 0 0.0453661
4.25297e-005 0.00299727 0 0.0160102
-0.000477288 0.00315875 0 0.000572086
-0.00378992 0.02149 0 7.21045e-005
0.000139812 0.00181138 0 0.0244628
0.000208917 0.00302796 0 0.000581158
-0.00160791 0.0049468 0 0.000521109
0.000941143 0.00995448 0 0.000267953
8.9442e-006 0.010956 0 0.000142118
-0.000434056 0.00133506 0 0.0254855
0.000566946 0.0289715 0 8.07149e-005
-7.40414e-005 0.003214 0 0.0038058
-0.000145493 0.00239699 0 0.0238418
3.42483e-005 0.00298986 0 0.016686
0.000575544 0.00987125 0 0.000184247
3.71363e-005 0.00299095 0 0.0165773
-0.00247102 0.00772987 0 0.000264052
0.00096928 0.0118325 0 0.000257619
-9.22697e-005 0.00299969 0 0.012283
-0.000570617 0.0122505 0 0.000224214
-0.000211411 0.00254812 0 0.0235519
-0.000765289 0.00457715 0 0.000307295
8.13068e-005 0.00294139 0 0.019404
-0.00437678 0.0203082 0 4.10356e-005
0.00226862 0.00661101 0 0.000303512
-0.000832194 0.000220534 0 0.0508934
-0.000164868 0.00301134 0 0.000583374
0.0012393 0.0259768 0 9.75838e-005
-2.48279e-005 0.00292318 0 0.0197109
0.000116572 0.00245177 0 0.023694
9.77655e-005 0.00313112 0 0.00428313
0.000279024 0.00328636 0 0.00120881
-5.75605e-005 0.0116355 0 0.000269315
-7.47936e-005 0.0117342 0 0.000280004
0.000518168 0.00993111 0 0.000175211
-0.000154608 0.0030256 0 0.000743439
4.53443e-005 0.00299839 0 0.0158988
-0.000161071 0.0027724 0 0.0223331
0.000104836 0.00293916 0 0.019331
-0.00100104 0.00361077 0 0.00056589
-0.000510005 0.00921774 0 0.000123908
0.00100295 0.0100141 0 0.000273673
-0.000646084 0.00336418 0 0.000665952
6.96906e-005 0.00293287 0 0.0195839
-1.67264e-005 0.00300289 0 0.0159094
0.000173509 0.0227352 0 0.000154246
3.17037e-005 0.00298455 0 0.0170373
0.000312244 0.00306502 0 0.000568887
-0.00212604 0.00906512 0 0.000327238
-0.00049218 0.00322389 0 0.000656562
0.000341345 0.00323843 0 0.000957296
-0.00385942 0.0216496 0 7.22953e-005
-0.000125834 0.0028813 0 0.0207574
0.00524627 0.0255212 0 5.48792e-005
0.000713781 0.0036837 0 0.000731181
0.00601727 0.0299149 0 4.8638e-005
-0.000344095 0.00203632 0 0.0244212
-0.0047341 0.0239481 0 5.7835e-005
-0.000460773 0.00539436 0 0.000231919
-0.00196148 0.00905338 0 0.000347581
0.00143807 0.0303782 0 7.16131e-005
7.94637e-005 0.00293894 0 0.0194688
0.00013473 0.00481908 0 0.000335482
0.00105264 0.00484794 0 0.000350712
0.000112877 0.0030262 0 0.00220913
-0.00781161 0.0282885 0 3.42896e-005
-0.000846622 0.00344471 0 0.00054096
-0.00206201 0.0306837 0 6.77274e-005
-0.00313594 0.0160362 0 3.86423e-005
0.00144289 0.0198776 0 0.000176895
-0.000135136 0.00286502 0 0.0210877
-0.000205101 0.000950881 0 0.0268875
0.000372212 0.00308853 0 0.000534293
0.000370404 0.000795868 0 0.031874
0.000201681 0.00347815 0 0.00130898
-0.000147808 0.00278598 0 0.0221327
0.000218103 0.000637733 0 0.0490688
0.000195722 0.00313377 0 0.00148936
-0.00203813 0.00594128 0 0.000377421
0.00112067 0.00510142 0 0.000364325
5.16573e-005 0.00373385 0 0.000961536
0.000381501 0.00336875 0 0.000851013
0.000860715 0.0258401 0 0.000103725
-0.000116556 0.00339842 0 0.00188094
-0.00513668 0.0257477 0 5.65768e-005
-0.000162894 0.00277847 0 0.0222929
8.27341e-005 0.00277738 0 0.02227
0.0010674 0.0118759 0 0.000264266
-4.09992e-005 0.00275121 0 0.0224197
3.29665e-005 0.00297369 0 0.0176767
-0.00204547 0.0090065 0 0.000343492
-0.00160474 0.0048986 0 0.000508239
8.25825e-005 0.00294819 0 0.0191248
4.00473e-005 0.00273627 0 0.0225248
-9.41642e-005 0.00295571 0 0.0187194
0.00150619 0.00997327 0 0.000328159
8.22134e-005 0.00268838 0 0.0228842
-0.000160791 0.00267895 0 0.0230301
-0.000596112 0.00909085 0 0.000141131
-9.31423e-005 0.00299701 0 0.0132566
0.00235681 0.0126226 0 0.000125999
0.00203765 0.00557212 0 0.000381299
-0.000165794 0.0115731 0 0.000221979
6.0159e-005 0.0021996 0 0.0240533
0.000371981 0.00362464 0 0.000792502
-0.00733688 0.029685 0 4.26457e-005
-0.000180414 0.00743151 0 0.000123334
-0.000357207 0.004885 0 0.000305323
0.00253943 0.00813968 0 0.000240196
-1.29377e-005 0.00332967 0 0.00277802
-0.0010235 0.00361199 0 0.000554341
-0.000285329 0.0030748 0 0.000591627
-0.000681311 0.00329291 0 0.000549337
-0.00260727 0.00895038 0 0.000224095
0.00788717 0.0276195 0 3.35755e-005
0.0089704 0.0287411 0 3.0267e-005
-0.000270534 0.00232157 0 0.0240717
-0.00014416 0.00312601 0 0.00263054
-0.000337662 0.00201762 0 0.0244493
0.0003962 0.00337513 0 0.000851436
0.00121317 0.00701782 0 0.000332356
0.000116206 0.00302915 0 0.00204256
0.00225197 0.00666935 0 0.000293221
-0.000507665 0.00548922 0 0.000223289
-0.000231863 0.00226746 0 0.0240945
0.000244361 0.00226851 0 0.0240994
0.00111028 0.00505498 0 0.00037381
0.000121223 0.00304184 0 0.00227322
0.00012049 0.00243938 0 0.023729
-0.0013386 0.0186068 0 0.000192662
0.000102064 0.00149733 0 0.0247372
0.000147362 0.00301363 0 0.000677196
0.00106981 0.0119939 0 0.000264408
-0.000365953 0.00411169 0 0.000538473
0.00557444 0.020358 0 2.01371e-005
4.86089e-005 0.00307386 0 0.00904639
-0.000177413 0.0035472 0 0.00126054
-0.000632994 0.00339325 0 0.000776707
0.000487307 0.00130985 0 0.0257587
-0.000349424 0.00402777 0 0.000586476
-0.00177251 0.00629586 0 0.000578162
-7.92525e-005 0.00273084 0 0.0226315
0.000241714 0.00100077 0 0.0262063
-0.000154516 0.0114773 0 0.000215653
0.00502442 0.0222916 0 4.99205e-005
-0.000166546 0.00272686 0 0.022766
0.000707598 0.00365891 0 0.00074326
-0.00157418 0.0046046 0 0.000489593
0.000122725 0.00301099 0 0.000978406
0.000172305 0.00324558 0 0.0020582
7.46185e-006 0.00286175 0 0.0210791
0.00533293 0.0140838 0 1.02219e-005
0.00520504 0.0284215 0 5.4576e-005
-0.00170266 0.00713636 0 0.000509522
4.38765e-005 0.00290514 0 0.0202538
0.00035679 0.0099507 0 0.000117362
0.000120447 0.00300871 0 0.00102441
7.85992e-005 0.00284146 0 0.021578
0.000146556 0.00306157 0 0.00156233
-0.000265484 0.00230758 0 0.0240969
-0.000558184 0.0114136 0 0.000208671
0.000873988 0.011905 0 0.000245998
0.00195145 0.0157285 0 7.54878e-005
0.000415959 0.00988952 0 0.000124362
0.00204861 0.00551694 0 0.000391338
0.00159497 0.00893937 0 0.000376756
0.00125366 0.00690066 0 0.000362765
-0.000537482 0.00397822 0 0.000505698
-0.00245206 0.00890865 0 0.000251245
-0.00591638 0.015069 0 9.27511e-006
0.00182541 0.0157696 0 8.15371e-005
-6.39179e-005 0.00274368 0 0.0224888
1.24162e-005 0.00286011 0 0.0211245
0.000785526 0.00520879 0 0.000224202
0.000119132 0.00288179 0 0.0209312
0.000107617 0.00492998 0 0.000318027
-0.000398708 0.00617064 0 0.000172644
-0.00031795 0.000861625 0 0.0294101
-0.0054742 0.0145195 0 9.53572e-006
-0.00050603 0.0093045 0 0.000124836
-0.00281713 0.0160093 0 4.50731e-005
-0.00521587 0.0225645 0 4.64461e-005
0.000631138 0.00410172 0 0.000420838
0.00077675 0.0118594 0 0.000235582
-0.000339893 0.00491785 0 0.000302141
0.000278502 0.0033019 0 0.00119976
-0.000206291 0.0025551 0 0.0234833
0.0015782 0.00885327 0 0.000376538
-0.000601058 0.00917374 0 0.000143551
0.000107852 0.00308374 0 0.00402167
0.000329157 0.00324408 0 0.000989156
-0.000107456 0.0030138 0 0.00227876
0.000995869 0.00478803 0 0.000309896
-0.00176263 0.00715431 0 0.000501899
0.000133123 0.00190024 0 0.0243818
0.00428452 0.0222831 0 6.41864e-005
0.00249322 0.0134845 0 7.77274e-005
0.000209201 0.00303326 0 0.000603284
1.124e-005 0.00241342 0 0.0237261
-0.000138897 0.00282521 0 0.0218282
-0.000422518 0.00130967 0 0.0255636
0.000897928 0.00602889 0 0.000176955
0.00296246 0.0177704 0 3.94084e-005
-0.000240922 0.0022558 0 0.0241101
0.000161456 0.0106342 0 0.000122841
-0.000169117 0.00269067 0 0.0229993
-0.00600599 0.0132277 0 4.31754e-006
-0.00498542 0.0226529 0 4.99886e-005
0.00035646 0.00189436 0 0.0245432
0.000360867 0.00193124 0 0.0245047
0.000188008 0.00159518 0 0.0246949
0.00315697 0.0294361 0 6.93078e-005
0.000380728 0.00331446 0 0.000883769
-0.000407732 0.00541329 0 0.000234709
0.00599218 0.0187772 0 1.51581e-005
-0.000475668 0.0124289 0 0.000233491
9.243e-005 0.00339173 0 0.00204815
-0.0022067 0.00902531 0 0.000300077
0.000138287 0.010546 0 0.000120838
-4.59787e-005 0.00300592 0 0.0152085
0.000475334 0.00325723 0 0.000770561
0.0081269 0.0233608 0 2.27809e-005
-0.000136448 0.00286953 0 0.0210126
0.000465099 0.00132931 0 0.0256668
0.000196949 0.00312437 0 0.00142213
-0.000725979 0.00459524 0 0.000320805
0.00566025 0.0201173 0 1.87663e-005
-0.000237093 0.000937504 0 0.0270304
-7.15727e-006 0.00298867 0 0.0168639
-0.000556128 0.00552312 0 0.000215735
-0.000151452 0.00278159 0 0.0222588
0.00604583 0.0167381 0 1.32385e-005
5.44524e-005 0.00307484 0 0.00871782
3.5211e-005 0.00270778 0 0.0227087
-0.00210731 0.0068781 0 0.000369886
8.91266e-005 0.00319599 0 0.00381099
-0.00242079 0.00974735 0 0.000234188
0.00135885 0.00413507 0 0.000499644
-0.00108228 0.00797081 0 0.000269824
3.29303e-005 0.00271504 0 0.0226488
-0.000508078 0.0208168 0 0.000190319
-0.00472826 0.0198065 0 2.44549e-005
0.00152826 0.0090827 0 0.000366107
-0.00252462 0.00897287 0 0.000242317
-4.09377e-005 0.0027578 0 0.0223611
-0.00186927 0.0116808 0 0.000257337
0.00108447 0.00518193 0 0.000309284
-0.00419392 0.0202211 0 4.26085e-005
0.000296615 0.00594885 0 0.000194326
0.00365557 0.0156923 0 2.94963e-005
-0.000138643 0.00311989 0 0.00274427
3.44704e-005 0.00298593 0 0.0169376
-0.000249911 0.000891772 0 0.0286707
0.00110337 0.0099601 0 0.000294235
8.04689e-005 0.00279643 0 0.0220727
0.00779157 0.0249956 0 2.92042e-005
0.000351464 0.00337107 0 0.000922699
-0.00012879 0.00323538 0 0.00267875
0.000155895 0.00168996 0 0.0245855
8.56943e-005 0.00294739 0 0.0191692
0.0053023 0.0238774 0 5.2646e-005
0.000238423 0.00318026 0 0.00126819
0.000230406 0.00226533 0 0.0240922
-5.15866e-005 0.00292996 0 0.0195707
2.57476e-005 0.00286927 0 0.0209756
0.000105066 0.00340141 0 0.00196077
-0.0006343 0.00341198 0 0.000800148
-0.00683177 0.0130924 0 3.63087e-006
-1.54609e-005 0.00299907 0 0.0161793
-0.00215958 0.00656839 0 0.000347009
0.00301179 0.0141363 0 4.23889e-005
-0.000723924 0.00463742 0 0.000316357
-0.000555458 0.00358088 0 0.000652875
0.000287933 0.00394954 0 0.000629528
-0.00525881 0.0259389 0 5.5532e-005
-0.000235386 0.00314485 0 0.00118747
-0.000664883 0.00104525 0 0.0278552
0.00182857 0.0107598 0 0.000287415
0.00289308 0.0133881 0 5.27733e-005
0.000556851 0.000459359 0 0.0472723
-6.31462e-005 0.00306344 0 0.00880986
0.00204396 0.0126442 0 0.00017567
-0.000369072 0.00408052 0 0.000544782
-0.00018247 0.00378321 0 0.000833538
0.000579156 0.0162179 0 0.000352075
0.00117061 0.0100074 0 0.000298402
0.000129771 0.00301154 0 0.000795279
0.00050022 0.00329429 0 0.000800315
-0.00194273 0.0117557 0 0.000240864
0.000295066 0.00600891 0 0.000194002
-0.000154748 0.0030213 0 0.000683356
8.51353e-005 0.00297491 0 0.0175136
0.000370749 0.00364798 0 0.000772768
0.00032381 0.000892659 0 0.0296686
-0.000114683 0.00273658 0 0.0226478
7.10543e-005 0.0030026 0 0.0145799
-9.6647e-005 0.00324264 0 0.00309909
0.000733896 0.00537107 0 0.00022424
0.000155197 0.00494735 0 0.000301523
0.000610019 0.00412319 0 0.000435499
0.000353717 0.00194986 0 0.0244905
-0.000244432 0.00314026 0 0.0011086
-0.00502653 0.0232658 0 5.2177e-005
-0.00178789 0.0309983 0 6.70929e-005
-0.000579723 0.00361754 0 0.000629165
0.00813841 0.0273314 0 3.19867e-005
-0.002496 0.0131044 0 8.90348e-005
-0.00431729 0.0290645 0 5.99715e-005
-0.000157683 0.00240005 0 0.0238487
-6.09633e-005 0.00273787 0 0.0225539
-0.000172602 0.00356894 0 0.00122512
5.95493e-005 0.00280503 0 0.0219428
3.59382e-005 0.00297531 0 0.0175791
0.0038221 0.0156522 0 2.71113e-005
0.00151814 0.00899556 0 0.000365282
0.00891208 0.0209237 0 1.10223e-005
0.00932881 0.0247628 0 1.98557e-005
0.000401147 0.00319889 0 0.000779021
-1.37134e-005 0.00292236 0 0.019718
-0.00149883 0.0199029 0 0.000162091
-0.000151382 0.00307642 0 0.00174635
-9.99299e-005 0.00297786 0 0.0164669
0.00528439 0.0241343 0 5.2312e-005
2.61097e-005 0.00286432 0 0.0210652
0.000206875 0.00349712 0 0.0012524
-0.00509797 0.0234717 0 5.29025e-005
-0.000597722 0.000953511 0 0.0281441
-0.00793898 0.0155863 0 6.18228e-006
0.00183935 0.0106624 0 0.000288841
7.52069e-005 0.00339368 0 0.00205553
-7.77056e-005 0.00294222 0 0.0192667
-9.8985e-005 0.00297992 0 0.0163435
0.00161823 0.00911669 0 0.000366101
8.21842e-005 0.00297527 0 0.0175203
-0.00188133 0.00900925 0 0.000359809
-0.00617827 0.0275965 0 4.56506e-005
-0.000490092 0.00321051 0 0.000627258
0.00945115 0.0288751 0 2.88134e-005
-0.00016434 0.00272067 0 0.0228943
-0.00797941 0.0222445 0 1.63364e-005
-4.01564e-005 0.00301654 0 0.0144975
-0.00180498 0.00506765 0 0.00042888
-0.000161305 0.00301261 0 0.000605701
-0.000482063 0.00316965 0 0.00057343
-0.000942791 0.00378901 0 0.000775472
-0.000134053 0.00282435 0 0.0218425
0.000242746 0.000963685 0 0.0278788
0.00525461 0.0274919 0 5.51482e-005
0.00306352 0.0179257 0 3.95502e-005
-0.000120066 0.00324295 0 0.00273954
-0.00319507 0.0125029 0 2.97926e-005
-0.000290892 0.00233844 0 0.024073
0.00159844 0.00482417 0 0.000518315
0.00787978 0.0236538 0 2.49211e-005
0.00145057 0.0259009 0 0.000102419
-0.000336257 0.00619409 0 0.000171521
-0.000333917 0.00172186 0 0.024741
0.00577509 0.0216659 0 3.39375e-005
0.000667048 0.00332313 0 0.000573196
0.00248969 0.00807562 0 0.00025005
-0.00160944 0.00467215 0 0.000488596
1.98969e-005 0.00242157 0 0.0237187
0.000286635 0.0021356 0 0.0242844
-0.00161117 0.00618199 0 0.000629752
7.54635e-005 0.00268391 0 0.0229007
0.00101663 0.00497361 0 0.000285653
9.78423e-005 0.00320089 0 0.00359586
-0.000282098 0.0245537 0 0.000116118
0.00160534 0.0053807 0 0.000648099
0.000645555 0.00426047 0 0.000389878
0.000344665 0.00191282 0 0.0245217
-4.37224e-005 0.0030135 0 0.0146047
0.000410526 0.00592784 0 0.000189882
-0.00161438 0.00462874 0 0.000477435
0.000197339 0.00307463 0 0.00097143
-0.00787948 0.0250527 0 2.74065e-005
0.000365567 0.000836364 0 0.0302126
0.000428529 0.0031113 0 0.000537458
6.29689e-005 0.00280138 0 0.0219999
-0.00260928 0.0115127 0 0.00016908
0.00511854 0.0182191 0 1.83553e-005
-0.000191506 0.0013612 0 0.0249416
0.000255298 0.00234631 0 0.0239579
7.80872e-005 0.00285378 0 0.0214267
-6.93966e-006 0.00361778 0 0.00125973
-0.000112834 0.00273034 0 0.0226917
-0.000151306 0.00308356 0 0.00182959
0.000794921 0.00339323 0 0.000547885
0.000120559 0.00308016 0 0.00317651
-0.00060963 0.000994212 0 0.0279275
-0.000187211 0.00375918 0 0.000871688
-0.000179749 0.00239602 0 0.0238798
0.000583853 0.00320912 0 0.000540704
-0.000220391 0.00307379 0 0.000804221
-3.20721e-005 0.00313154 0 0.00691414
-0.00240166 0.00829286 0 0.000257733
-0.000107553 0.0032363 0 0.00298074
0.000485775 0.00324734 0 0.000718784
-1.6528e-005 0.00283252 0 0.0215164
0.000388916 0.00319175 0 0.000791816
-0.000191501 0.000101552 0 0.0693105
-0.00244196 0.00780076 0 0.000258502
-0.000237142 0.00223825 0 0.0241438
-0.00179252 0.00511195 0 0.000440361
7.86645e-005 0.00300926 0 0.0125851
-0.00578012 0.0268724 0 5.0339e-005
-0.00101007 0.00801211 0 0.000232949
0.000363332 0.00337974 0 0.000919379
0.000391279 0.00186159 0 0.0246016
0.000433244 0.00317308 0 0.000613656
0.00161612 0.00543442 0 0.00065031
-0.00207993 0.00693738 0 0.000365991
0.000483914 0.00474879 0 0.000323074
0.000802557 6.40842e-005 0 0.0590782
0.00066144 0.00330597 0 0.00055679
0.00141767 0.0197289 0 0.000178416
-0.000651775 0.00329699 0 0.000576613
0.000282152 0.00304241 0 0.000549715
-0.000357054 0.00319624 0 0.000885509
-0.00178284 0.00623412 0 0.000575783
3.8992e-005 0.00380209 0 0.000906192
-0.00100109 0.0210667 0 0.000172569
0.000165033 0.00158259 0 0.0247013
0.00864187 0.0174253 0 9.10931e-006
0.00315453 0.0128329 0 3.75201e-005
-8.64597e-005 0.00318341 0 0.00398777
-0.000259494 0.0126492 0 0.0003269
0.000466396 0.000355167 0 0.0576053
0.000246728 0.00318708 0 0.00126813
-0.000724122 0.000493878 0 0.0387514
-0.00236534 0.0089472 0 0.000268346
-0.00585899 0.0184819 0 1.48758e-005
-0.000109395 0.00425783 0 0.000519814
-0.000225082 0.00307869 0 0.000804596
0.00116126 0.00383867 0 0.000540409
0.000146244 0.00305529 0 0.0014749
0.000106639 0.00285591 0 0.0214388
0.00516349 0.0142403 0 1.10659e-005
-0.000547118 0.0281975 0 8.796e-005
-0.00314055 0.0188201 0 4.78452e-005
6.39205e-005 0.0034062 0 0.00192276
0.000746714 0.00049437 0 0.03951
0.00226648 0.0258744 0 9.06806e-005
-0.000137355 0.00283875 0 0.0216202
0.00173233 0.0108179 0 0.000291749
-0.000334456 0.00625618 0 0.00016613
-0.000652252 0.00338145 0 0.000691724
-6.89277e-005 0.00306466 0 0.00810622
0.000126795 0.00304178 0 0.00191823
0.00478399 0.0277755 0 5.94136e-005
0.000516287 0.0229306 0 0.000149182
5.89116e-005 0.00254342 0 0.0234232
-0.00795861 0.0246948 0 2.71912e-005
0.00133689 0.00999394 0 0.000322931
-0.000118825 0.0220921 0 0.000170302
6.34909e-005 0.0107046 0 0.000126427
-0.000946741 0.00381309 0 0.000789948
0.00581241 0.0241952 0 4.38372e-005
-0.00487736 0.01991 0 2.36455e-005
0.00170829 0.0256098 0 0.000102325
9.98067e-005 0.00316224 0 0.00390606
0.00308063 0.0142797 0 4.12927e-005
-0.000279242 0.00307977 0 0.00061315
-0.000183934 0.00303725 0 0.000680276
7.83288e-005 0.00286324 0 0.0212185
-0.000440884 0.00514493 0 0.000254443
0.000455558 0.00477565 0 0.000316477
0.00520625 0.0221693 0 4.72999e-005
-0.00179507 0.00722781 0 0.000488685
5.54873e-005 0.00266826 0 0.0229552
-0.00157971 0.00456195 0 0.000483457
4.18607e-005 0.00302762 0 0.0134135
-0.000194972 5.19224e-005 0 0.0700161
-0.000846289 0.00342394 0 0.00053375
-0.00105965 0.00823661 0 0.000262841
0.000163413 0.00479131 0 0.000339084
-8.2874e-005 0.00288534 0 0.0208614
0.00157378 0.00552232 0 0.000663226
-7.66839e-005 0.00293931 0 0.0193845
0.000101978 0.0109948 0 0.000167685
-0.000363872 0.00601296 0 0.00018015
0.000117978 0.00287815 0 0.0210752
0.000219153 0.00318835 0 0.00144249
-0.00163196 0.00449872 0 0.000467587
-0.000221409 0.00303399 0 0.000572458
-0.000370966 0.0244074 0 0.000120533
-0.000466554 0.00315829 0 0.000585452
0.000396164 0.00331941 0 0.000870517
-0.00482666 0.0238063 0 5.70252e-005
0.00133411 0.00522841 0 0.000648999
-0.00267568 0.00982141 0 0.000189863
-0.000480207 0.0219659 0 0.000168208
0.00177473 0.0106071 0 0.00029376
0.000428512 0.00597987 0 0.000189498
0.00330832 0.0202369 0 6.96963e-005
-0.00036699 0.012473 0 0.00025909
-0.000901486 0.00347959 0 0.000535506
-9.70158e-005 0.00294708 0 0.0191018
-0.00110466 0.0144253 0 0.000196112
-0.00107199 0.0143087 0 0.000199823
0.000113095 0.0030798 0 0.00371044
0.000776547 0.0117402 0 0.000236484
-0.000196596 0.00302496 0 0.000567532
-0.00581483 0.0148124 0 9.07187e-006
0.000125326 0.00308478 0 0.00300448
-0.00172589 0.0230235 0 0.000125143
-0.00123798 0.0114294 0 0.000280905
-0.000106038 0.00301072 0 0.00246924
7.68012e-005 0.00277918 0 0.0222406
-0.000218387 0.00226751 0 0.0240962
0.00288382 0.0120736 0 9.08293e-005
0.000136685 0.00272066 0 0.022744
0.00126396 0.00994364 0 0.000314566
0.000169734 0.00323168 0 0.00210184
3.33298e-005 0.00296283 0 0.0182448
7.38909e-005 0.00285244 0 0.0214268
0.00226662 0.00684142 0 0.0003127
-4.80444e-005 0.00288948 0 0.0206461
0.000117291 0.00304527 0 0.00263688
0.00044057 0.00316393 0 0.000601798
0.00025781 0.000139806 0 0.067163
-0.000553437 0.0115383 0 0.000209467
0.00174054 0.0109254 0 0.000286881
-0.00657824 0.0304887 0 4.66151e-005
-0.00287878 0.0309438 0 6.40981e-005
-1.74214e-005 0.00292383 0 0.0196764
0.000417861 0.00311152 0 0.000542759
-0.000158816 0.00302837 0 0.000737555
0.000540608 0.00339996 0 0.000840519
0.00322243 0.0179545 0 3.61772e-005
-0.000159371 0.0013528 0 0.0249093
0.000126077 0.0159893 0 0.000430411
-0.00432652 0.0294311 0 6.00115e-005
0.0015673 0.00546801 0 0.000664792
-5.0904e-005 0.00292621 0 0.0196994
-0.000106737 0.00293051 0 0.019568
0.00275932 0.0110589 0 0.000175398
0.000556951 0.00340784 0 0.000848517
0.000399007 0.0063813 0 0.000164043
-4.55764e-005 0.00288684 0 0.0206808
5.78688e-005 0.00240298 0 0.0237492
-0.00135948 0.0128543 0 0.000241243
0.00105587 0.00489705 0 0.000343891
-0.00180772 0.00736401 0 0.000470897
8.62884e-005 0.0107917 0 0.000127408
-1.73838e-005 0.00299616 0 0.0163775
-0.000559779 0.00402893 0 0.00048078
-0.000129894 0.00339006 0 0.00184573
-0.00108645 0.0209701 0 0.000175127
-0.000355289 0.00318516 0 0.000860725
6.75287e-005 0.00268766 0 0.0228544
-1.6399e-005 0.00282695 0 0.0215995
0.000375645 0.00184967 0 0.0246162
0.000226595 0.00318087 0 0.00137609
-0.00157723 0.0197887 0 0.000160603
0.000153682 0.00302297 0 0.000725111
-0.000983791 0.00376429 0 0.000718101
0.00320404 0.0139037 0 3.90417e-005
-0.000399729 0.0051532 0 0.000266494
-8.43671e-005 0.0028893 0 0.020785
0.00153091 0.0204307 0 0.000165648
0.0023948 0.0125217 0 0.000129665
0.000662239 0.00525468 0 0.000238135
-0.00103759 0.0179087 0 0.000230877
-0.00194218 0.00558429 0 0.000403185
-0.000960129 0.00376594 0 0.000724653
-0.000309837 0.00306474 0 0.000543098
0.00162461 0.00920594 0 0.000367262
0.00346181 0.0203111 0 6.62975e-005
0.000412094 0.000782235 0 0.0316431
4.10836e-005 0.00290739 0 0.0201863
0.00107752 0.00513333 0 0.000308812
-0.00139776 0.00696247 0 0.000448217
5.83714e-005 0.0023895 0 0.0237791
0.000501828 0.0119171 0 0.000229239
-2.97555e-005 0.00300349 0 0.0157571
0.00113092 0.00612109 0 0.000254377
3.11664e-005 0.00285722 0 0.021192
-0.000756348 0.0223669 0 0.000155949
0.000606022 0.00322532 0 0.000541188
0.00858419 0.0213223 0 1.20841e-005
0.00228739 0.00873166 0 0.00027684
-0.00330691 0.0124678 0 2.27263e-005
-0.00135503 0.018735 0 0.000192358
-0.00782909 0.0173425 0 8.07459e-006
0.000179373 0.00168518 0 0.0246128
0.000181353 0.0228576 0 0.00015311
0.00116853 0.00608209 0 0.000273568
0.00534216 0.0272787 0 5.58262e-005
0.000808836 0.00340365 0 0.000549971
-0.00176706 0.00728799 0 0.000482715
0.000366125 0.00308127 0 0.000539684
0.000142062 0.00271694 0 0.0227876
0.000456136 0.0264018 0 9.89971e-005
0.000149779 0.00301624 0 0.000666226
8.09965e-005 0.015903 0 0.000433196
3.07264e-005 0.00286231 0 0.0211071
-0.000148146 0.00339011 0 0.00177228
-0.0064378 0.0277565 0 4.5318e-005
0.00072806 0.00532362 0 0.00022432
-0.00065633 0.00335203 0 0.000625393
-0.000360464 0.000878987 0 0.0282166
-9.67537e-005 0.00295742 0 0.0185605
-0.000484113 0.00948683 0 0.000129468
-0.000565445 0.00399845 0 0.000496284
0.000588623 0.00111811 0 0.0271347
0.000130395 0.00304539 0 0.0018295
0.000107754 0.00285149 0 0.0215151
0.00165731 0.0250536 0 0.000105594
0.00285988 0.0119675 0 0.000104191
-9.54028e-005 0.00428588 0 0.000513277
-0.000124414 0.00317156 0 0.00309091
-0.00814733 0.0285856 0 3.44738e-005
-0.000216377 0.0031251 0 0.0012287
0.00549751 0.012219 0 4.6499e-006
-0.00550796 0.012201 0 3.15259e-006
0.00287309 0.0132504 0 5.36712e-005
0.000396043 0.00090361 0 0.0284816
-9.96587e-005 0.00294535 0 0.0191546
-0.00215947 0.00674928 0 0.000344273
-0.000289559 0.000893856 0 0.0280064
0.00184728 0.00894591 0 0.000360028
-0.000404895 0.00611192 0 0.000174954
-0.00085135 0.00350535 0 0.00057565
3.34633e-006 0.00298331 0 0.0171749
0.00378526 0.0199019 0 4.54324e-005
-0.000528492 0.024373 0 0.000123057
-0.000842118 0.0116133 0 0.000239196
-0.00298148 0.0188909 0 5.93426e-005
5.9556e-005 0.0025331 0 0.023454
-0.000468824 0.00121303 0 0.025948
9.1581e-005 0.0171817 0 0.000369034
-0.00127026 0.0113439 0 0.000281024
0.00402234 0.0130084 0 1.27601e-005
-0.000363163 0.00496329 0 0.000286679
-0.00609252 0.0268039 0 4.5944e-005
0.000283831 0.00172705 0 0.0246829
-0.000884834 0.00452052 0 0.000327456
0.000104251 0.00312707 0 0.00404815
0.00028648 0.000908897 0 0.0298896
0.00627587 0.0218045 0 2.98625e-005
0.000138189 0.00301242 0 0.000722163
-8.45766e-005 0.00300744 0 0.012011
-0.000367296 0.0115469 0 0.000196901
4.43738e-005 0.00303088 0 0.0130077
0.00481648 0.0179238 0 2.007e-005
0.00149749 0.00436073 0 0.000489674
0.00128386 0.00510424 0 0.000623867
-0.000137123 0.00279496 0 0.0221486
0.00010392 0.0048879 0 0.00031799
-0.00091848 7.16259e-005 0 0.0550601
3.54985e-006 0.00298714 0 0.016953
0.000749152 0.00426831 0 0.000373606
-0.000130195 0.00286367 0 0.0212417
0.00513916 0.0264131 0 5.72661e-005
-0.00145383 0.00693267 0 0.000475603
-0.000170314 0.00271408 0 0.0228612
0.000708754 0.00344963 0 0.000716945
0.000173403 0.0026398 0 0.0231933
0.00102924 0.00397184 0 0.000829927
7.04719e-005 0.00292897 0 0.0197337
-0.000154347 0.00277069 0 0.0223592
0.000152777 0.00306484 0 0.00148051
-0.0057264 0.0155753 0 1.09444e-005
-0.00516063 0.0124211 0 4.07175e-006
-0.000727401 0.00332353 0 0.00054586
0.00177507 0.00499121 0 0.000445072
-0.00104148 0.00729487 0 0.000238757
8.03056e-005 0.00285902 0 0.0212998
0.000619507 0.00322392 0 0.000533594
0.000491741 0.00344599 0 0.00074626
-8.64345e-005 0.00319528 0 0.00383893
0.000495863 0.00327729 0 0.000774943
0.00629165 0.0165428 0 1.22314e-005
-0.000348261 0.00373379 0 0.000748212
0.00695359 0.012557 0 5.41397e-006
-0.00614658 0.0186042 0 1.41713e-005
0.00446424 0.0221677 0 6.01671e-005
-0.000789844 0.00391708 0 0.000565371
0.000117774 0.00196522 0 0.0243177
-0.000255362 0.0148691 0 0.000442534
-0.00503812 0.0284552 0 5.69167e-005
-0.000107009 0.00253653 0 0.023502
0.000146628 0.00274959 0 0.0225864
0.00773255 0.0309094 0 4.09096e-005
0.000159147 0.00499252 0 0.000301946
0.000514649 0.00313677 0 0.000526829
0.00101358 0.00492618 0 0.000300042
-0.00010231 0.00251506 0 0.0235447
-0.000149253 0.0149017 0 0.000449336
-0.0026764 0.0106555 0 0.000181026
-0.000401914 0.00497223 0 0.000280806
-9.9778e-005 0.00250395 0 0.0235801
-0.000167489 0.00307565 0 0.00135121
0.00547148 0.0254757 0 5.29078e-005
6.86885e-005 0.00304125 0 0.00981135
-0.00443178 0.028435 0 6.16135e-005
-9.60567e-005 0.00299261 0 0.0144227
0.00605816 0.0243911 0 4.25968e-005
-0.00166852 0.0218177 0 0.000143362
3.51271e-005 0.00306949 0 0.0101858
0.00934401 0.0252145 0 2.10657e-005
0.000689131 0.0161709 0 0.000324303
-0.00185288 0.0231304 0 0.000120134
-0.000635695 0.0147353 0 0.000365848
0.000424951 0.000378919 0 0.0581737
3.11571e-005 0.00341221 0 0.00195818
-0.00451594 0.0239154 0 6.17742e-005
4.55634e-005 0.00300278 0 0.0155413
-0.000190882 0.0026229 0 0.0233112
-0.00293428 0.0314144 0 6.48152e-005
0.000192455 0.0109275 0 0.000175511
-7.99306e-005 0.00301235 0 0.011807
-0.000103784 0.019352 0 0.000242264
0.000298059 0.00179298 0 0.0246204
0.000318272 0.00306073 0 0.000559972
4.79498e-005 0.00267219 0 0.0229389
0.000550505 0.00439983 0 0.000375209
-6.64966e-005 0.00296368 0 0.018239
-0.000353929 0.0037557 0 0.000726052
0.00136689 0.00417221 0 0.000510897
0.000288631 0.0043673 0 0.000440506
-0.000116817 0.00316526 0 0.00335137
0.000228982 0.00477361 0 0.000336189
-0.00010849 0.00292752 0 0.0197261
0.00158742 0.0252298 0 0.000105037
0.00029744 0.00214644 0 0.0242721
0.00012001 0.0179918 0 0.000313153
-2.8464e-005 0.00302556 0 0.0140456
-0.000121369 0.00301027 0 0.000963494
-0.000613293 0.003423 0 0.000849369
0.000416492 0.000739339 0 0.0335374
0.00607599 0.0132862 0 6.17503e-006
-0.000118426 0.00301015 0 0.00101093
0.000338231 0.0030745 0 0.000549167
-0.000760719 0.00047075 0 0.0394838
-0.000159712 0.00339978 0 0.00170654
0.00621185 0.0259584 0 4.43092e-005
-0.000407926 0.00403608 0 0.000531812
5.21801e-005 0.0048277 0 0.00033424
0.00820777 0.0174274 0 9.44931e-006
-0.000651027 0.00328042 0 0.000551719
-8.91944e-005 0.00296269 0 0.0183632
-0.000640908 0.0223311 0 0.0001588
0.00498206 0.0148716 0 1.46471e-005
-0.000133404 0.00280466 0 0.0220296
-0.00284514 0.0101497 0 0.000176523
0.00015129 0.00247549 0 0.0236939
0.0036537 0.0164932 0 2.99549e-005
0.000170347 0.00269813 0 0.0230374
-0.00192463 0.00759706 0 0.000416502
-0.00146113 0.00452985 0 0.000553627
0.00164564 0.0109866 0 0.000288278
0.00153691 0.0307746 0 7.1497e-005
0.000402223 0.00321336 0 0.000824274
-0.000561587 0.00118082 0 0.0264271
-0.00107178 0.00734408 0 0.000238408
-4.6988e-005 0.00292472 0 0.0197286
0.000121356 0.00262665 0 0.023234
-0.00180667 0.021881 0 0.00013768
-0.000301986 0.0030856 0 0.000599666
-0.000116548 0.00289513 0 0.0207082
0.000683718 0.0116885 0 0.000230791
-0.000354426 0.00170815 0 0.0247786
0.000168525 0.00302989 0 0.000697812
0.0016288 0.00554363 0 0.000648913
-0.000454254 0.00780077 0 0.000110201
9.99188e-005 0.00299126 0 0.0143927
-0.000923631 0.00351832 0 0.000548884
-0.000513771 0.00531417 0 0.000230725
-0.000134682 0.0174176 0 0.000340847
0.000245462 0.00302872 0 0.000551327
-0.00010594 0.00296983 0 0.0172763
0.000263028 0.00390471 0 0.000690132
0.000668464 0.00324245 0 0.000521761
-0.00016736 0.00267447 0 0.0230589