# U  FACE_DATA 23640
#  x  y  z  U_x  U_y  U_z  
-0.00296834 0.0159323 0 -748.378 2252.8 0
0.000794309 0.0100339 0 -348.784 2702.89 0
0.00690979 0.0130745 0 385.039 297.285 0
0.000158008 0.0018211 0 -31.7882 153.769 0
-0.000662165 0.0113619 0 466.207 2742.75 0
-0.00203768 0.00587959 0 -234.993 895.219 0
-0.000220137 0.00748479 0 -137.638 2921.37 0
0.00214531 0.0125841 0 -5.66192 2132.72 0
-0.00164167 0.00702341 0 -229.933 2444.52 0
0.00020958 0.00306993 0 1357.01 599.002 0
4.59799e-005 0.00273939 0 -37.5511 475.499 0
0.00075606 0.00524313 0 972.263 2686.18 0
0.00107075 0.0257944 0 257.848 2673.17 0
-0.000458708 0.0115994 0 486.497 2736.97 0
-0.000900467 0.00350322 0 -443.437 470.01 0
-0.00222355 0.00655891 0 -188.772 857.842 0
0.00442703 0.0182294 0 1094.31 2203.85 0
7.09705e-005 0.00299924 0 -79.01 1144.86 0
-2.45517e-005 0.00292714 0 43.2129 797.433 0
-0.000543852 0.00394831 0 -1470.28 2307.47 0
7.98376e-005 0.00283498 0 -91.2511 563.065 0
0.00510868 0.0124654 0 356.896 157.411 0
7.37866e-005 0.00284217 0 -88.0291 579.519 0
-0.000122136 0.00287943 0 129.62 449.483 0
0.00117211 0.0120328 0 -392.073 2592.79 0
0.000340217 0.00636002 0 307.042 2868.33 0
-1.62375e-005 0.00331413 0 -101.763 2278.27 0
0.000288499 0.00391811 0 867.151 2510.66 0
0.00604323 0.0215883 0 1458.34 1874.48 0
0.0015748 0.0199438 0 594.103 2506.6 0
0.000642306 0.0286533 0 143.028 2684.26 0
-0.000788091 0.000235815 0 -2.06676 2.08136 0
8.45076e-005 0.00283429 0 -95.2567 556.535 0
-0.000766033 0.00453527 0 -1323.56 2460.62 0
-0.000556446 0.00360452 0 -1795.63 1811.08 0
-0.000694613 0.00330261 0 -447.129 332.11 0
0.00425461 0.0181246 0 1066.59 2250.35 0
0.00563158 0.0299784 0 983.344 2436.25 0
0.00374311 0.0125452 0 793.027 485.406 0
-0.000168184 0.00269727 0 86.2275 327.293 0
0.00100487 0.00483203 0 1292.03 2476.23 0
-0.00170325 0.00704586 0 -230.789 2425.14 0
-0.00047461 0.0123053 0 452.545 2697.89 0
-0.00401905 0.0129379 0 -1049.29 616.716 0
0.000128446 0.00148328 0 -25.4164 93.1727 0
0.000108141 0.00315803 0 1006.01 1829.82 0
0.00299545 0.0176096 0 706.498 2450.9 0
0.00122698 0.00708374 0 187.595 2661.17 0
0.000214903 0.00307399 0 1391.12 623.659 0
0.00225142 0.0126586 0 92.1499 2065.12 0
0.000204708 0.00068009 0 3.62649 8.35557 0
4.25297e-005 0.00299727 0 -49.2653 1105.49 0
-0.000477288 0.00315875 0 -580.644 325.603 0
-0.00378992 0.02149 0 -1137.57 2222.67 0
0.000139812 0.00181138 0 -28.6656 150.666 0
0.000208917 0.00302796 0 350.775 91.4703 0
-0.00160791 0.0049468 0 -548.271 1428.62 0
0.000941143 0.00995448 0 -315.077 2696.12 0
8.9442e-006 0.010956 0 -5.83457 2837.67 0
-0.000434056 0.00133506 0 55.5457 134.224 0
0.000566946 0.0289715 0 90.0878 2674.4 0
-7.40414e-005 0.003214 0 -630.105 2040.19 0
-0.000145493 0.00239699 0 46.3956 274.595 0
3.42483e-005 0.00298986 0 -50.8456 1056.93 0
0.000575544 0.00987125 0 -370.286 2755.14 0
3.71363e-005 0.00299095 0 -53.7636 1065.07 0
-0.00247102 0.00772987 0 -117.267 801.148 0
0.00096928 0.0118325 0 -424.739 2628.68 0
-9.22697e-005 0.00299969 0 58.4467 1210.09 0
-0.000570617 0.0122505 0 493.455 2705.45 0
-0.000211411 0.00254812 0 67.6865 252.9 0
-0.000765289 0.00457715 0 -1293.81 2465.51 0
8.13068e-005 0.00294139 0 -146.281 761.011 0
-0.00437678 0.0203082 0 -1203.97 2029.4 0
0.00226862 0.00661101 0 194.182 851.203 0
-0.000832194 0.000220534 0 -4.01867 3.99778 0
-0.000164868 0.00301134 0 -129.012 25.2314 0
0.0012393 0.0259768 0 295.711 2692 0
-2.48279e-005 0.00292318 0 43.6097 785.756 0
0.000116572 0.00245177 0 -40.8442 294.302 0
9.77655e-005 0.00313112 0 932.268 1782.53 0
0.000279024 0.00328636 0 1759.53 1660.54 0
-5.75605e-005 0.0116355 0 58.5072 2626 0
-7.47936e-005 0.0117342 0 108.732 2661.12 0
0.000518168 0.00993111 0 -317.396 2772.55 0
-0.000154608 0.0030256 0 -899.716 306.094 0
4.53443e-005 0.00299839 0 -51.3038 1115.21 0
-0.000161071 0.0027724 0 66.1784 223.162 0
0.000104836 0.00293916 0 -160.421 594.4 0
-0.00100104 0.00361077 0 -404.306 451.105 0
-0.000510005 0.00921774 0 28.1385 2881.85 0
0.00100295 0.0100141 0 -320.522 2678.06 0
-0.000646084 0.00336418 0 -1137.9 948.006 0
6.96906e-005 0.00293287 0 -124.02 766.238 0
-1.67264e-005 0.00300289 0 12.651 1126 0
0.000173509 0.0227352 0 42.4421 2646.07 0
3.17037e-005 0.00298455 0 -51.8635 1027.11 0
0.000312244 0.00306502 0 401.581 146.82 0
-0.00212604 0.00906512 0 -33.6342 2124.83 0
-0.00049218 0.00322389 0 -1108.64 736.769 0
0.000341345 0.00323843 0 1939.97 1338.09 0
-0.00385942 0.0216496 0 -1146.34 2223.07 0
-0.000125834 0.0028813 0 115.801 384.071 0
0.00524627 0.0255212 0 1179.99 2304.28 0
0.000713781 0.0036837 0 1673.53 1869.81 0
0.00601727 0.0299149 0 1039.13 2404.52 0
-0.000344095 0.00203632 0 50.7987 174.08 0
-0.0047341 0.0239481 0 -1200.01 2285.79 0
-0.000460773 0.00539436 0 -568.582 2790.57 0
-0.00196148 0.00905338 0 -1.96609 2329.39 0
0.00143807 0.0303782 0 255.609 2669.98 0
7.94637e-005 0.00293894 0 -141.736 759.497 0
0.00013473 0.00481908 0 233.492 2783.76 0
0.00105264 0.00484794 0 1223.47 2588.88 0
0.000112877 0.0030262 0 1377.42 1154.01 0
-0.00781161 0.0282885 0 -1404.33 2163.51 0
-0.000846622 0.00344471 0 -452.709 414.328 0
-0.00206201 0.0306837 0 -369.986 2647.2 0
-0.00313594 0.0160362 0 -818.024 2245.59 0
0.00144289 0.0198776 0 565.562 2555.44 0
-0.000135136 0.00286502 0 72.4143 250.873 0
-0.000205101 0.000950881 0 -2.85132 32.4319 0
0.000372212 0.00308853 0 368.435 160.483 0
0.000370404 0.000795868 0 6.18835 24.6264 0
0.000201681 0.00347815 0 1040.89 2248.1 0
-0.000147808 0.00278598 0 96.3244 358.229 0
0.000218103 0.000637733 0 3.06855 6.25867 0
0.000195722 0.00313377 0 1839.03 1332.5 0
-0.00203813 0.00594128 0 -256.833 966.298 0
0.00112067 0.00510142 0 1041.45 2585.52 0
5.16573e-005 0.00373385 0 206.396 2569.29 0
0.000381501 0.00336875 0 1882.94 1646.43 0
0.000860715 0.0258401 0 199.35 2696.54 0
-0.000116556 0.00339842 0 -715.286 2285.75 0
-0.00513668 0.0257477 0 -1150.28 2380.45 0
-0.000162894 0.00277847 0 43.2151 140.993 0
8.27341e-005 0.00277738 0 -75.3959 495.383 0
0.0010674 0.0118759 0 -405.71 2608.18 0
-4.09992e-005 0.00275121 0 36.2561 488.332 0
3.29665e-005 0.00297369 0 -59.8038 970.943 0
-0.00204547 0.0090065 0 -36.8182 2248 0
-0.00160474 0.0048986 0 -526.438 1352.77 0
8.25825e-005 0.00294819 0 -153.824 777.96 0
4.00473e-005 0.00273627 0 -32.4908 473.53 0
-9.41642e-005 0.00295571 0 168.283 742.702 0
0.00150619 0.00997327 0 -193.082 2571.84 0
8.22134e-005 0.00268838 0 -55.6938 420.795 0
-0.000160791 0.00267895 0 86.4002 346.961 0
-0.000596112 0.00909085 0 61.0238 2858.21 0
-9.31423e-005 0.00299701 0 129.432 1093.23 0
0.00235681 0.0126226 0 159.031 1968.25 0
0.00203765 0.00557212 0 126.979 417.893 0
-0.000165794 0.0115731 0 317.397 2703.14 0
6.0159e-005 0.0021996 0 -15.5024 226.579 0
0.000371981 0.00362464 0 1439.83 2182.69 0
-0.00733688 0.029685 0 -1242.21 2302.91 0
-0.000180414 0.00743151 0 -123.324 2915.79 0
-0.000357207 0.004885 0 -545.883 2748.78 0
0.00253943 0.00813968 0 111.532 806.225 0
-1.29377e-005 0.00332967 0 -90.785 2286.42 0
-0.0010235 0.00361199 0 -339.88 363.891 0
-0.000285329 0.0030748 0 -810.982 316.203 0
-0.000681311 0.00329291 0 -465.317 323.166 0
-0.00260727 0.00895038 0 -81.2935 852.157 0
0.00788717 0.0276195 0 1430.27 2134.43 0
0.0089704 0.0287411 0 1514.16 2115.63 0
-0.000270534 0.00232157 0 60.6962 205.155 0
-0.00014416 0.00312601 0 -1449.81 1569.09 0
-0.000337662 0.00201762 0 50.6398 177.161 0
0.0003962 0.00337513 0 1885.87 1641.68 0
0.00121317 0.00701782 0 196.678 2674.9 0
0.000116206 0.00302915 0 1430.67 1109.47 0
0.00225197 0.00666935 0 201.092 1002.63 0
-0.000507665 0.00548922 0 -603.085 2793.36 0
-0.000231863 0.00226746 0 53.4484 227.562 0
0.000244361 0.00226851 0 -54.5449 218.112 0
0.00111028 0.00505498 0 1032.4 2575.67 0
0.000121223 0.00304184 0 1511.22 1215.34 0
0.00012049 0.00243938 0 -41.3851 289.798 0
-0.0013386 0.0186068 0 -539.515 2549.11 0
0.000102064 0.00149733 0 -21.355 93.1365 0
0.000147362 0.00301363 0 437.22 124.706 0
0.00106981 0.0119939 0 -412.068 2608.09 0
-0.000365953 0.00411169 0 -939.204 2564.15 0
0.00557444 0.020358 0 1224.03 2024.07 0
4.86089e-005 0.00307386 0 282.948 1615.61 0
-0.000177413 0.0035472 0 -823.303 2378.57 0
-0.000632994 0.00339325 0 -1391.08 1206.77 0
0.000487307 0.00130985 0 -70.4371 173.066 0
-0.000349424 0.00402777 0 -924.115 2546.09 0
-0.00177251 0.00629586 0 -405.698 2217.03 0
-7.92525e-005 0.00273084 0 63.0055 456.271 0
0.000241714 0.00100077 0 -3.62584 45.2295 0
-0.000154516 0.0114773 0 298.797 2701.36 0
0.00502442 0.0222916 0 1337.97 2043.38 0
-0.000166546 0.00272686 0 79.223 303.332 0
0.000707598 0.00365891 0 1659.36 1821.15 0
-0.00157418 0.0046046 0 -399.757 912.315 0
0.000122725 0.00301099 0 694.991 250.233 0
0.000172305 0.00324558 0 1351.51 1869.89 0
7.46185e-006 0.00286175 0 -10.0826 646.238 0
0.00533293 0.0140838 0 1026.48 737.272 0
0.00520504 0.0284215 0 997.588 2432.09 0
-0.00170266 0.00713636 0 -216.285 2423.93 0
4.38765e-005 0.00290514 0 -71.5003 724.355 0
0.00035679 0.0099507 0 -214.759 3026.2 0
0.000120447 0.00300871 0 592.494 230.449 0
7.85992e-005 0.00284146 0 -92.3186 573.155 0
0.000146556 0.00306157 0 1687.7 1133.35 0
-0.000265484 0.00230758 0 56.6222 212.633 0
-0.000558184 0.0114136 0 477.729 2736.91 0
0.000873988 0.011905 0 -458.715 2648.62 0
0.00195145 0.0157285 0 261.919 2534.68 0
0.000415959 0.00988952 0 -196.064 2812.79 0
0.00204861 0.00551694 0 77.9346 235.561 0
0.00159497 0.00893937 0 -83.9849 2541.75 0
0.00125366 0.00690066 0 200.96 2670.15 0
-0.000537482 0.00397822 0 -1458.45 2344.69 0
-0.00245206 0.00890865 0 -70.8096 1303.04 0
-0.00591638 0.015069 0 -1349.07 986.925 0
0.00182541 0.0157696 0 200.394 2573.09 0
-6.39179e-005 0.00274368 0 54.3063 474.777 0
1.24162e-005 0.00286011 0 -16.3801 642.091 0
0.000785526 0.00520879 0 1002.08 2648.12 0
0.000119132 0.00288179 0 -131.43 492.176 0
0.000107617 0.00492998 0 160.731 2808.71 0
-0.000398708 0.00617064 0 -387.479 2860.04 0
-0.00031795 0.000861625 0 -4.3421 28.7728 0
-0.0054742 0.0145195 0 -1331.76 907.812 0
-0.00050603 0.0093045 0 36.9368 2876.71 0
-0.00281713 0.0160093 0 -686.424 2310.83 0
-0.00521587 0.0225645 0 -1327.08 2032.32 0
0.000631138 0.00410172 0 1437.04 2290.55 0
0.00077675 0.0118594 0 -477.537 2676.06 0
-0.000339893 0.00491785 0 -531.803 2753.15 0
0.000278502 0.0033019 0 1739.41 1694.92 0
-0.000206291 0.0025551 0 70.7038 263.453 0
0.0015782 0.00885327 0 -74.4153 2542.66 0
-0.000601058 0.00917374 0 72.4368 2844.93 0
0.000107852 0.00308374 0 1117.94 1620.28 0
0.000329157 0.00324408 0 1936.55 1365.3 0
-0.000107456 0.0030138 0 -1107.76 957.215 0
0.000995869 0.00478803 0 1286.78 2451.21 0
-0.00176263 0.00715431 0 -218.315 2396.88 0
0.000133123 0.00190024 0 -27.8513 166.273 0
0.00428452 0.0222831 0 1223.37 2208.89 0
0.00249322 0.0134845 0 498.811 2139.98 0
0.000209201 0.00303326 0 514.66 151.712 0
1.124e-005 0.00241342 0 -3.43677 289.923 0
-0.000138897 0.00282521 0 103.702 374.311 0
-0.000422518 0.00130967 0 52.5846 125.722 0
0.000897928 0.00602889 0 845.41 2748.3 0
0.00296246 0.0177704 0 708.624 2460.99 0
-0.000240922 0.0022558 0 54.0576 223.82 0
0.000161456 0.0106342 0 -169.065 2852.78 0
-0.000169117 0.00269067 0 83.077 325.839 0
-0.00600599 0.0132277 0 -865.109 247.698 0
-0.00498542 0.0226529 0 -1326.14 2100.88 0
0.00035646 0.00189436 0 -53.3743 174.216 0
0.000360867 0.00193124 0 -52.3101 173.993 0
0.000188008 0.00159518 0 -36.279 119.201 0
0.00315697 0.0294361 0 587.361 2610.45 0
0.000380728 0.00331446 0 1915.71 1476.07 0
-0.000407732 0.00541329 0 -496.356 2817.9 0
0.00599218 0.0187772 0 1256.9 1875.2 0
-0.000475668 0.0124289 0 451.417 2698.46 0
9.243e-005 0.00339173 0 545.66 2319.06 0
-0.0022067 0.00902531 0 -24.8715 1916.04 0
0.000138287 0.010546 0 -144.13 2892.73 0
-4.59787e-005 0.00300592 0 27.5422 1170.43 0
0.000475334 0.00325723 0 1526.71 1038.3 0
0.0081269 0.0233608 0 1547.81 1786.12 0
-0.000136448 0.00286953 0 52.0857 168.935 0
0.000465099 0.00132931 0 -68.6815 164.529 0
0.000196949 0.00312437 0 1880.42 1261.62 0
-0.000725979 0.00459524 0 -1236.58 2514.7 0
0.00566025 0.0201173 0 1213.75 2060.11 0
-0.000237093 0.000937504 0 -2.35771 32.1967 0
-7.15727e-006 0.00298867 0 9.16147 1048.09 0
-0.000556128 0.00552312 0 -628.803 2786.98 0
-0.000151452 0.00278159 0 86.2067 334.293 0
0.00604583 0.0167381 0 1244.99 1444.15 0
5.44524e-005 0.00307484 0 341.609 1620.63 0
3.5211e-005 0.00270778 0 -25.9559 449.017 0
-0.00210731 0.0068781 0 -281.839 1596.73 0
8.91266e-005 0.00319599 0 767.035 1985.85 0
-0.00242079 0.00974735 0 -16.2798 1564.54 0
0.00135885 0.00413507 0 368.461 633.382 0
-0.00108228 0.00797081 0 22.4798 2751.21 0
3.29303e-005 0.00271504 0 -24.4556 455.574 0
-0.000508078 0.0208168 0 -190.393 2644.38 0
-0.00472826 0.0198065 0 -1130.19 2142.95 0
0.00152826 0.0090827 0 -109.989 2569.36 0
-0.00252462 0.00897287 0 -80.6683 1123.51 0
-4.09377e-005 0.0027578 0 36.9633 495.351 0
-0.00186927 0.0116808 0 219.01 2315.03 0
0.00108447 0.00518193 0 1081.96 2576.93 0
-0.00419392 0.0202211 0 -1172.5 2067.8 0
0.000296615 0.00594885 0 308.742 2851.36 0
0.00365557 0.0156923 0 1069.42 2110.93 0
-0.000138643 0.00311989 0 -1404 1574.82 0
3.44704e-005 0.00298593 0 -55.1776 1034.94 0
-0.000249911 0.000891772 0 -4.41206 28.4965 0
0.00110337 0.0099601 0 -285.714 2644.26 0
8.04689e-005 0.00279643 0 -78.9119 516.822 0
0.00779157 0.0249956 0 1530.25 1992.88 0
0.000351464 0.00337107 0 1831.78 1717 0
-0.00012879 0.00323538 0 -1057.87 1998.5 0
0.000155895 0.00168996 0 -31.5175 131.317 0
8.56943e-005 0.00294739 0 -157.827 762.222 0
0.0053023 0.0238774 0 1303.68 2211.9 0
0.000238423 0.00318026 0 1875.1 1365.96 0
0.000230406 0.00226533 0 -53.0257 223.322 0
-5.15866e-005 0.00292996 0 92.0809 787.793 0
2.57476e-005 0.00286927 0 -35.713 656.065 0
0.000105066 0.00340141 0 600.613 2295.02 0
-0.0006343 0.00341198 0 -1461.39 1303.83 0
-0.00683177 0.0130924 0 -773.024 261.112 0
-1.54609e-005 0.00299907 0 14.3636 1103.98 0
-0.00215958 0.00656839 0 -249.72 1160.07 0
0.00301179 0.0141363 0 864.549 2012.06 0
-0.000723924 0.00463742 0 -1230.46 2518.76 0
-0.000555458 0.00358088 0 -1804.64 1779.34 0
0.000287933 0.00394954 0 838.61 2533.3 0
-0.00525881 0.0259389 0 -1174.04 2372.41 0
-0.000235386 0.00314485 0 -1918.78 1193.74 0
-0.000664883 0.00104525 0 70.8327 221.149 0
0.00182857 0.0107598 0 -167.127 2412.39 0
0.00289308 0.0133881 0 792.118 1834.87 0
0.000556851 0.000459359 0 3.53958 3.88836 0
-6.31462e-005 0.00306344 0 -381.936 1588.6 0
0.00204396 0.0126442 0 -59.6827 2225.89 0
-0.000369072 0.00408052 0 -944.218 2547.06 0
-0.00018247 0.00378321 0 -601.443 2508.17 0
0.000579156 0.0162179 0 161.119 2541.74 0
0.00117061 0.0100074 0 -288.307 2649.82 0
0.000129771 0.00301154 0 598.498 169.198 0
0.00050022 0.00329429 0 1618.11 1185.21 0
-0.00194273 0.0117557 0 200.701 2233.16 0
0.000295066 0.00600891 0 305.686 2853.86 0
-0.000154748 0.0030213 0 -703.217 211.073 0
8.51353e-005 0.00297491 0 -169.696 873.042 0
0.000370749 0.00364798 0 1419.84 2205.87 0
0.00032381 0.000892659 0 3.88851 35.3824 0
-0.000114683 0.00273658 0 87.8671 436.162 0
7.10543e-005 0.0030026 0 -53.3739 1183.44 0
-9.6647e-005 0.00324264 0 -783.359 2067.93 0
0.000733896 0.00537107 0 890.143 2707.33 0
0.000155197 0.00494735 0 241.829 2803.83 0
0.000610019 0.00412319 0 1399.72 2333.32 0
0.000353717 0.00194986 0 -53.0572 174.375 0
-0.000244432 0.00314026 0 -1901.95 1131.34 0
-0.00502653 0.0232658 0 -1288.18 2168.02 0
-0.00178789 0.0309983 0 -335.721 2650.26 0
-0.000579723 0.00361754 0 -1788.26 1809.76 0
0.00813841 0.0273314 0 1477.94 2092.39 0
-0.002496 0.0131044 0 -406.711 2026.25 0
-0.00431729 0.0290645 0 -834.313 2550.73 0
-0.000157683 0.00240005 0 49.9502 273.341 0
-6.09633e-005 0.00273787 0 50.5915 469.555 0
-0.000172602 0.00356894 0 -791.422 2397.11 0
5.95493e-005 0.00280503 0 -61.753 540.651 0
3.59382e-005 0.00297531 0 -64.87 978.014 0
0.0038221 0.0156522 0 1106.44 2028.63 0
0.00151814 0.00899556 0 -109.874 2569.24 0
0.00891208 0.0209237 0 1241.52 1539.95 0
0.00932881 0.0247628 0 1603.37 1813.72 0
0.000401147 0.00319889 0 1527.46 921.928 0
-1.37134e-005 0.00292236 0 23.9425 786.386 0
-0.00149883 0.0199029 0 -583.22 2568.79 0
-0.000151382 0.00307642 0 -1727.04 1238.72 0
-9.99299e-005 0.00297786 0 166.775 629.456 0
0.00528439 0.0241343 0 1295.09 2217.65 0
2.61097e-005 0.00286432 0 -35.3103 646.601 0
0.000206875 0.00349712 0 1042.23 2265.13 0
-0.00509797 0.0234717 0 -1290.42 2185.61 0
-0.000597722 0.000953511 0 47.8231 136.997 0
-0.00793898 0.0155863 0 -1192.32 717.345 0
0.00183935 0.0106624 0 -165.469 2405.12 0
7.52069e-005 0.00339368 0 449.363 2341.85 0
-7.77056e-005 0.00294222 0 142.121 782.672 0
-9.8985e-005 0.00297992 0 170.721 669.762 0
0.00161823 0.00911669 0 -96.6296 2541.61 0
8.21842e-005 0.00297527 0 -163.441 895.153 0
-0.00188133 0.00900925 0 -13.2893 2421.63 0
-0.00617827 0.0275965 0 -1219.15 2317.97 0
-0.000490092 0.00321051 0 -997.523 651.823 0
0.00945115 0.0288751 0 1543.23 2091.62 0
-0.00016434 0.00272067 0 91.3505 321.745 0
-0.00797941 0.0222445 0 -1549.06 1733.6 0
-4.01564e-005 0.00301654 0 -4.09617 1234.58 0
-0.00180498 0.00506765 0 -234.933 661.088 0
-0.000161305 0.00301261 0 -221.504 43.7929 0
-0.000482063 0.00316965 0 -664.602 385.682 0
-0.000942791 0.00378901 0 -1185.36 1589.27 0
-0.000134053 0.00282435 0 115.393 421.207 0
0.000242746 0.000963685 0 -0.255598 40.6384 0
0.00525461 0.0274919 0 1059.96 2384.46 0
0.00306352 0.0179257 0 720.945 2464.03 0
-0.000120066 0.00324295 0 -980.665 2024.43 0
-0.00319507 0.0125029 0 -966.993 1035.31 0
-0.000290892 0.00233844 0 32.2744 122.111 0
0.00159844 0.00482417 0 482.27 1209.44 0
0.00787978 0.0236538 0 1566.91 1843.65 0
0.00145057 0.0259009 0 346.824 2670.31 0
-0.000336257 0.00619409 0 -322.073 2874.23 0
-0.000333917 0.00172186 0 48.9651 155.653 0
0.00577509 0.0216659 0 1435.53 1888.87 0
0.000667048 0.00332313 0 753.867 591.753 0
0.00248969 0.00807562 0 111.952 948.022 0
-0.00160944 0.00467215 0 -386.351 895.938 0
1.98969e-005 0.00242157 0 -6.64389 292.765 0
0.000286635 0.0021356 0 -53.3175 195.158 0
-0.00161117 0.00618199 0 -422.391 2353.6 0
7.54635e-005 0.00268391 0 -50.7535 419.849 0
0.00101663 0.00497361 0 1234.84 2518.91 0
9.78423e-005 0.00320089 0 824.463 1969.42 0
-0.000282098 0.0245537 0 -92.7363 2695.2 0
0.00160534 0.0053807 0 607.334 2073.96 0
0.000645555 0.00426047 0 1345.69 2391.25 0
0.000344665 0.00191282 0 -53.04 175.295 0
-4.37224e-005 0.0030135 0 2.54071 1219.53 0
0.000410526 0.00592784 0 418.534 2836.93 0
-0.00161438 0.00462874 0 -326.618 758.153 0
0.000197339 0.00307463 0 1561.8 779.506 0
-0.00787948 0.0250527 0 -1543.99 1941.73 0
0.000365567 0.000836364 0 5.73696 30.3862 0
0.000428529 0.0031113 0 319.646 146.412 0
6.29689e-005 0.00280138 0 -64.8575 534.004 0
-0.00260928 0.0115127 0 7.95897 1317.46 0
0.00511854 0.0182191 0 1226.55 2043.73 0
-0.000191506 0.0013612 0 21.7571 76.6066 0
0.000255298 0.00234631 0 -57.4186 214.706 0
7.80872e-005 0.00285378 0 -96.0857 590.311 0
-6.93966e-006 0.00361778 0 -20.7079 2523.03 0
-0.000112834 0.00273034 0 84.4373 433.477 0
-0.000151306 0.00308356 0 -1699.33 1303.92 0
0.000794921 0.00339323 0 459.232 393.496 0
0.000120559 0.00308016 0 1332.61 1559.71 0
-0.00060963 0.000994212 0 58.0592 165.224 0
-0.000187211 0.00375918 0 -669.523 2512.33 0
-0.000179749 0.00239602 0 55.0918 266.72 0
0.000583853 0.00320912 0 368.344 236.115 0
-0.000220391 0.00307379 0 -1375.82 622.443 0
-3.20721e-005 0.00313154 0 -259.141 1822.2 0
-0.00240166 0.00829286 0 -115.762 1260.27 0
-0.000107553 0.0032363 0 -891.217 2033.5 0
0.000485775 0.00324734 0 1378.69 919.873 0
-1.6528e-005 0.00283252 0 20.1264 594.706 0
0.000388916 0.00319175 0 1554.85 925.102 0
-0.000191501 0.000101552 0 -0.0370699 0.105461 0
-0.00244196 0.00780076 0 -90.4173 946.513 0
-0.000237142 0.00223825 0 52.645 222.456 0
-0.00179252 0.00511195 0 -300.284 809.164 0
7.86645e-005 0.00300926 0 38.6923 1298.97 0
-0.00578012 0.0268724 0 -1182.02 2346.76 0
-0.00101007 0.00801211 0 -10.0811 2762.25 0
0.000363332 0.00337974 0 1828.08 1708.47 0
0.000391279 0.00186159 0 -54.3657 168.888 0
0.000433244 0.00317308 0 1000.58 571.939 0
0.00161612 0.00543442 0 568.505 2126.8 0
-0.00207993 0.00693738 0 -295.308 1731.53 0
0.000483914 0.00474879 0 785.802 2690.97 0
0.000802557 6.40842e-005 0 0.0545762 -0.00129755 0
0.00066144 0.00330597 0 666.998 514.503 0
0.00141767 0.0197289 0 555.128 2558.8 0
-0.000651775 0.00329699 0 -650.392 481.866 0
0.000282152 0.00304241 0 168.754 48.2286 0
-0.000357054 0.00319624 0 -1759.06 1095.44 0
-0.00178284 0.00623412 0 -412.426 2145.74 0
3.8992e-005 0.00380209 0 148.136 2600.25 0
-0.00100109 0.0210667 0 -368.406 2594.42 0
0.000165033 0.00158259 0 -32.4679 113.835 0
0.00864187 0.0174253 0 964.946 1013.51 0
0.00315453 0.0128329 0 968.974 1415.22 0
-8.64597e-005 0.00318341 0 -767.547 1943.36 0
-0.000259494 0.0126492 0 147.145 2627.17 0
0.000466396 0.000355167 0 0.883745 0.331848 0
0.000246728 0.00318708 0 1875.08 1368.08 0
-0.000724122 0.000493878 0 -4.61602 31.4939 0
-0.00236534 0.0089472 0 -62.1414 1529.52 0
-0.00585899 0.0184819 0 -1345.79 1868.16 0
-0.000109395 0.00425783 0 -225.687 2723.3 0
-0.000225082 0.00307869 0 -1402.93 666.174 0
0.00116126 0.00383867 0 443.058 592.732 0
0.000146244 0.00305529 0 1664.07 1017.4 0
0.000106639 0.00285591 0 -121.757 538.903 0
0.00516349 0.0142403 0 1128.62 871.916 0
-0.000547118 0.0281975 0 -131.03 2693.15 0
-0.00314055 0.0188201 0 -894.721 2298.9 0
6.39205e-005 0.0034062 0 382.91 2353.45 0
0.000746714 0.00049437 0 1.05502 46.1491 0
0.00226648 0.0258744 0 548.458 2638.49 0
-0.000137355 0.00283875 0 100.184 353.66 0
0.00173233 0.0108179 0 -204.178 2483.67 0
-0.000334456 0.00625618 0 -299.474 2861.75 0
-0.000652252 0.00338145 0 -1210.97 1027.36 0
-6.89277e-005 0.00306466 0 -458.913 1608.58 0
0.000126795 0.00304178 0 1538.26 1103.68 0
0.00478399 0.0277755 0 948.556 2466.71 0
0.000516287 0.0229306 0 156.752 2633.89 0
5.89116e-005 0.00254342 0 -26.1832 340.453 0
-0.00795861 0.0246948 0 -1550.28 1902.99 0
0.00133689 0.00999394 0 -235.066 2611.84 0
-0.000118825 0.0220921 0 -57.4345 2627.56 0
6.34909e-005 0.0107046 0 -71.5011 2800.94 0
-0.000946741 0.00381309 0 -1195.51 1640.73 0
0.00581241 0.0241952 0 1385.53 2195.92 0
-0.00487736 0.01991 0 -1153.85 2121.47 0
0.00170829 0.0256098 0 412.62 2659 0
9.98067e-005 0.00316224 0 914.92 1862.41 0
0.00308063 0.0142797 0 897.043 1996.11 0
-0.000279242 0.00307977 0 -966.942 391.81 0
-0.000183934 0.00303725 0 -936.667 291.914 0
7.83288e-005 0.00286324 0 -100.239 604.945 0
-0.000440884 0.00514493 0 -580.389 2744.36 0
0.000455558 0.00477565 0 737.891 2709.85 0
0.00520625 0.0221693 0 1356.87 2003.36 0
-0.00179507 0.00722781 0 -218.933 2391.48 0
5.54873e-005 0.00266826 0 -35.594 414.185 0
-0.00157971 0.00456195 0 -341.312 770.432 0
4.18607e-005 0.00302762 0 41.3493 1313 0
-0.000194972 5.19224e-005 0 -0.0144529 0.0393307 0
-0.000846289 0.00342394 0 -339.608 321.271 0
-0.00105965 0.00823661 0 59.8747 2743.37 0
0.000163413 0.00479131 0 283.825 2782.03 0
-8.2874e-005 0.00288534 0 117.213 638.226 0
0.00157378 0.00552232 0 575.186 2266.63 0
-7.66839e-005 0.00293931 0 137.477 775.842 0
0.000101978 0.0109948 0 -191.374 2814.49 0
-0.000363872 0.00601296 0 -363.894 2874.04 0
0.000117978 0.00287815 0 -134.249 500.875 0
0.000219153 0.00318835 0 1782.2 1485.02 0
-0.00163196 0.00449872 0 -101.569 200.998 0
-0.000221409 0.00303399 0 -423.049 120.774 0
-0.000370966 0.0244074 0 -124.568 2683.46 0
-0.000466554 0.00315829 0 -645.746 361.11 0
0.000396164 0.00331941 0 1915.3 1464.74 0
-0.00482666 0.0238063 0 -1220.74 2245.05 0
0.00133411 0.00522841 0 710.955 2400.79 0
-0.00267568 0.00982141 0 -29.9042 873.473 0
-0.000480207 0.0219659 0 -166.952 2626.28 0
0.00177473 0.0106071 0 -177.571 2459.53 0
0.000428512 0.00597987 0 423.558 2841.11 0
0.00330832 0.0202369 0 1085.42 2227.75 0
-0.00036699 0.012473 0 363.67 2692.39 0
-0.000901486 0.00347959 0 -330.515 348.116 0
-9.70158e-005 0.00294708 0 166.915 700.202 0
-0.00110466 0.0144253 0 366.79 2631.75 0
-0.00107199 0.0143087 0 382.937 2622 0
0.000113095 0.0030798 0 1218.65 1591.18 0
0.000776547 0.0117402 0 -477.702 2659.65 0
-0.000196596 0.00302496 0 -362.006 98.9288 0
-0.00581483 0.0148124 0 -1324.49 919.107 0
0.000125326 0.00308478 0 1387.47 1550.47 0
-0.00172589 0.0230235 0 -538.785 2610.25 0
-0.00123798 0.0114294 0 359.165 2619.34 0
-0.000106038 0.00301072 0 -1056.48 888.525 0
7.68012e-005 0.00277918 0 -70.911 501.38 0
-0.000218387 0.00226751 0 51.5212 230.828 0
0.00288382 0.0120736 0 333.306 996.486 0
0.000136685 0.00272066 0 -90.9103 392.951 0
0.00126396 0.00994364 0 -261.223 2644.99 0
0.000169734 0.00323168 0 1362.09 1845.53 0
3.33298e-005 0.00296283 0 -62.7784 920.562 0
7.38909e-005 0.00285244 0 -91.0252 592.897 0
0.00226662 0.00684142 0 190.688 1081.58 0
-4.80444e-005 0.00288948 0 73.1328 686.216 0
0.000117291 0.00304527 0 1446.65 1411.48 0
0.00044057 0.00316393 0 836.771 466.578 0
0.00025781 0.000139806 0 0.0963689 0.10182 0
-0.000553437 0.0115383 0 478.244 2746.55 0
0.00174054 0.0109254 0 -207.72 2480.45 0
-0.00657824 0.0304887 0 -1115.36 2404.23 0
-0.00287878 0.0309438 0 -507.651 2627.02 0
-1.74214e-005 0.00292383 0 30.4958 789.804 0
0.000417861 0.00311152 0 386.096 179.733 0
-0.000158816 0.00302837 0 -948.184 337.006 0
0.000540608 0.00339996 0 1773.84 1496.33 0
0.00322243 0.0179545 0 774.55 2453.27 0
-0.000159371 0.0013528 0 16.8579 71.7705 0
0.000126077 0.0159893 0 23.1153 2537.74 0
-0.00432652 0.0294311 0 -817.295 2530.8 0
0.0015673 0.00546801 0 594.792 2242.87 0
-5.0904e-005 0.00292621 0 89.4228 777.308 0
-0.000106737 0.00293051 0 154.55 586.539 0
0.00275932 0.0110589 0 24.5244 802.605 0
0.000556951 0.00340784 0 1746.47 1505.14 0
0.000399007 0.0063813 0 346.45 2864.45 0
-4.55764e-005 0.00288684 0 67.9063 682.053 0
5.78688e-005 0.00240298 0 -19.0421 284.204 0
-0.00135948 0.0128543 0 405.482 2580.06 0
0.00105587 0.00489705 0 1228.26 2537.9 0
-0.00180772 0.00736401 0 -225.301 2375.98 0
8.62884e-005 0.0107917 0 -113.265 2862.03 0
-1.73838e-005 0.00299616 0 19.4067 1087.8 0
-0.000559779 0.00402893 0 -1426.97 2336.26 0
-0.000129894 0.00339006 0 -796.809 2267.39 0
-0.00108645 0.0209701 0 -386.96 2596.32 0
-0.000355289 0.00318516 0 -1700.62 1026.02 0
6.75287e-005 0.00268766 0 -46.0648 425.399 0
-1.6399e-005 0.00282695 0 19.8572 586.991 0
0.000375645 0.00184967 0 -55.3407 171.518 0
0.000226595 0.00318087 0 1836.55 1413.48 0
-0.00157723 0.0197887 0 -620.424 2565.57 0
0.000153682 0.00302297 0 780.687 236.551 0
-0.000983791 0.00376429 0 -994.581 1363.94 0
0.00320404 0.0139037 0 970.516 1850.73 0
-0.000399729 0.0051532 0 -526.728 2781.85 0
-8.43671e-005 0.0028893 0 121.991 642.438 0
0.00153091 0.0204307 0 565.929 2571.05 0
0.0023948 0.0125217 0 155.83 1932.77 0
0.000662239 0.00525468 0 834.919 2719.98 0
-0.00103759 0.0179087 0 -435.326 2549.92 0
-0.00194218 0.00558429 0 -280.783 906.089 0
-0.000960129 0.00376594 0 -1111.77 1441.09 0
-0.000309837 0.00306474 0 -417.527 157.548 0
0.00162461 0.00920594 0 -103.478 2539.87 0
0.00346181 0.0203111 0 1115.51 2220.19 0
0.000412094 0.000782235 0 6.26411 26.4868 0
4.10836e-005 0.00290739 0 -67.4696 731.839 0
0.00107752 0.00513333 0 1085.97 2576.77 0
-0.00139776 0.00696247 0 -160.105 2635.09 0
5.83714e-005 0.0023895 0 -18.7537 280.05 0
0.000501828 0.0119171 0 -488.681 2685.78 0
-2.97555e-005 0.00300349 0 22.9442 1136.61 0
0.00113092 0.00612109 0 682.849 2707.38 0
3.11664e-005 0.00285722 0 -40.8643 631.865 0
-0.000756348 0.0223669 0 -258.148 2623.16 0
0.000606022 0.00322532 0 378.712 240.542 0
0.00858419 0.0213223 0 1275.87 1633.19 0
0.00228739 0.00873166 0 116.319 1782.25 0
-0.00330691 0.0124678 0 -914.844 787.243 0
-0.00135503 0.018735 0 -541.449 2547.75 0
-0.00782909 0.0173425 0 -1382.98 1168.04 0
0.000179373 0.00168518 0 -35.2022 133.068 0
0.000181353 0.0228576 0 43.618 2642.15 0
0.00116853 0.00608209 0 693.696 2698.64 0
0.00534216 0.0272787 0 1071.39 2374.52 0
0.000808836 0.00340365 0 436.395 396.602 0
-0.00176706 0.00728799 0 -208.745 2411.17 0
0.000366125 0.00308127 0 302.611 125.62 0
0.000142062 0.00271694 0 -92.0968 383.435 0
0.000456136 0.0264018 0 108.204 2704.65 0
0.000149779 0.00301624 0 520.733 158.163 0
8.09965e-005 0.015903 0 18.3588 2536.95 0
3.07264e-005 0.00286231 0 -41.2088 641.206 0
-0.000148146 0.00339011 0 -905.638 2215.53 0
-0.0064378 0.0277565 0 -1226.84 2310.88 0
0.00072806 0.00532362 0 894.837 2701.56 0
-0.00065633 0.00335203 0 -952.486 829.161 0
-0.000360464 0.000878987 0 -2.43533 34.2769 0
-9.67537e-005 0.00295742 0 168.949 720.476 0
-0.000484113 0.00948683 0 103.542 2847.07 0
-0.000565445 0.00399845 0 -1454.14 2323.23 0
0.000588623 0.00111811 0 -74.6036 206.348 0
0.000130395 0.00304539 0 1566.07 1113.35 0
0.000107754 0.00285149 0 -120.881 531.542 0
0.00165731 0.0250536 0 406.047 2639.5 0
0.00285988 0.0119675 0 143.916 882.668 0
-9.54028e-005 0.00428588 0 -208.901 2729.97 0
-0.000124414 0.00317156 0 -1147.65 1846.22 0
-0.00814733 0.0285856 0 -1412.8 2156.46 0
-0.000216377 0.0031251 0 -1880.38 1162.49 0
0.00549751 0.012219 0 169.701 57.7668 0
-0.00550796 0.012201 0 -223.476 47.5504 0
0.00287309 0.0132504 0 776.764 1825.56 0
0.000396043 0.00090361 0 0.701977 46.6659 0
-9.96587e-005 0.00294535 0 167.397 671.71 0
-0.00215947 0.00674928 0 -256.661 1318.51 0
-0.000289559 0.000893856 0 -3.64089 30.894 0
0.00184728 0.00894591 0 -19.0604 2431.92 0
-0.000404895 0.00611192 0 -389.43 2843.91 0
-0.00085135 0.00350535 0 -733.395 726.542 0
3.34633e-006 0.00298331 0 -6.06272 1020.8 0
0.00378526 0.0199019 0 1096.29 2211.11 0
-0.000528492 0.024373 0 -162.198 2684.18 0
-0.000842118 0.0116133 0 452.441 2712.05 0
-0.00298148 0.0188909 0 -934.876 2278.22 0
5.9556e-005 0.0025331 0 -25.8321 336.126 0
-0.000468824 0.00121303 0 53.4623 128.602 0
9.1581e-005 0.0171817 0 41.7889 2566.53 0
-0.00127026 0.0113439 0 352.022 2618.37 0
0.00402234 0.0130084 0 1053.79 678.689 0
-0.000363163 0.00496329 0 -547.714 2765.04 0
-0.00609252 0.0268039 0 -1245.01 2310.03 0
0.000283831 0.00172705 0 -50.0934 154.015 0
-0.000884834 0.00452052 0 -1453.85 2381.99 0
0.000104251 0.00312707 0 1006.72 1764.08 0
0.00028648 0.000908897 0 4.39351 35.9977 0
0.00627587 0.0218045 0 1484.36 1853.55 0
0.000138189 0.00301242 0 491.081 142.467 0
-8.45766e-005 0.00300744 0 -69.0455 1328.6 0