/*--------------------------------*- C++ -*----------------------------------*\
  =========                 |
  \\      /  F ield         | OpenFOAM: The Open Source CFD Toolbox
   \\    /   O peration     | Website:  https://openfoam.org
    \\  /    A nd           | Version:  8
     \\/     M anipulation  |
\*---------------------------------------------------------------------------*/
FoamFile
{
    version     2.0;
    format      ascii;
    class       volScalarField;
    location    "9e-05";
    object      alphat;
}
// * * * * * * * * * * * * * * * * * * * * * * * * * * * * * * * * * * * * * //

dimensions      [1 -1 -1 0 0 0 0];

internalField   nonuniform List<scalar> 
23640
(
9.9295e-08
6.88017e-07
1.14157e-10
0.0155475
1.04325e-06
3.23389e-06
5.66878e-06
1.52527e-06
8.52959e-06
9.63543e-07
0.000818063
4.92377e-06
7.2947e-07
1.26179e-06
5.02943e-07
9.86581e-07
1.79403e-08
0.000122743
0.000380414
3.89364e-06
0.000425289
1.64159e-11
0.000433958
6.44212e-05
2.35126e-06
7.94195e-06
2.88364e-05
5.49555e-06
2.32114e-08
6.52295e-07
3.08138e-07
1.56225
0.000405296
3.80111e-06
3.51828e-06
3.07542e-07
2.02946e-08
1.28115e-07
5.06347e-10
0.000175642
6.24261e-06
7.39163e-06
2.92519e-06
2.61668e-09
0.0539171
2.9944e-05
6.18434e-08
1.35391e-05
9.93708e-07
1.08519e-06
23.8751
0.000216056
2.6523e-07
1.65162e-07
0.0167247
9.73613e-09
6.46748e-06
7.44204e-07
5.61316e-07
0.0213474
2.89136e-07
3.68728e-05
0.00225944
0.000247382
6.39588e-07
0.000239944
6.18643e-08
1.91443e-06
1.73924e-05
2.44711e-06
0.000273908
3.84018e-06
0.000184885
3.46151e-08
8.75993e-07
0.253616
3.52631e-11
6.75628e-07
0.000388219
0.00206823
3.57028e-05
6.54032e-06
2.24778e-06
2.471e-06
5.79458e-07
1.43551e-07
0.000207624
1.31463e-05
5.26917e-05
5.91575e-07
7.39855e-07
7.4102e-07
1.6396e-06
0.000254245
0.000245176
6.6942e-07
0.000261391
3.63976e-08
5.02023e-07
1.14871e-06
3.33302e-06
1.75146e-07
3.26054e-05
1.7042e-07
3.44194e-06
1.10695e-07
0.00140439
2.95128e-07
4.97248e-06
6.17366e-07
2.36844e-07
0.000198431
3.95951e-06
6.94876e-06
2.2782e-06
6.46761e-08
4.14134e-07
2.28099e-07
8.27522e-08
7.21941e-07
4.82742e-06
1.16433
3.6383e-08
1.79439
1.05602e-05
8.96003e-05
38.0023
5.83784e-06
3.55837e-06
9.80909e-06
8.32762e-06
4.33237e-06
7.54715e-07
1.67162e-05
2.23953e-07
2.98182e-06
0.000570458
2.08545e-06
0.00079013
0.000279759
5.25447e-07
5.86704e-06
0.000164305
0.000842435
8.59453e-05
7.16031e-07
0.000880173
0.00032331
9.90439e-07
1.66439e-05
8.88344e-07
1.42497e-07
1.68452e-06
0.00571682
5.75581e-06
9.92878e-08
5.86114e-06
4.15508e-06
4.60364e-08
2.82931e-05
3.45748e-07
2.8929e-07
3.06133e-07
1.95539e-07
4.16002e-08
3.26144e-08
0.000582226
1.4785e-05
0.00194883
4.24402e-06
1.42278e-05
2.1954e-06
8.9719e-07
5.22324e-06
0.00207809
0.00181338
9.383e-06
4.11992e-06
0.00214011
9.8284e-07
0.0533924
6.9745e-09
2.22616e-06
4.70184e-06
1.57976e-08
0.000100245
1.08123e-05
2.13681e-06
0.0136212
4.99867e-06
1.18975e-05
0.000734534
0.667245
1.51893e-06
5.01114e-08
9.39696e-05
3.43543e-06
1.83127e-06
2.10078e-08
1.47541e-05
0.000529423
2.02208e-09
1.45849e-07
6.87749e-06
0.000389575
3.64884e-07
1.01622e-08
0.00041554
3.50378e-06
0.000830645
1.06745e-06
1.94949e-06
2.48188e-07
4.09262e-07
1.94442e-08
1.09458e-06
1.54887e-05
3.82728e-06
3.2769e-07
2.15215e-09
2.89508e-07
0.000750723
0.000531305
4.85507e-06
7.98834e-05
4.13673e-06
7.16394e-06
1.32085
2.6541e-09
6.91818e-07
1.15935e-07
6.64348e-08
3.55548e-06
1.80203e-06
4.1857e-06
6.58414e-06
0.000308506
1.16282e-06
9.56564e-07
2.50731e-05
3.7271e-06
5.05483e-07
5.96271e-06
5.85141e-06
0.0128273
1.67034e-07
3.03841e-07
3.89251e-08
0.0029318
6.29624e-05
0.0265906
1.24679e-05
6.01172e-08
0.00199037
3.8984e-07
0.000189935
1.74956e-10
9.84135e-08
0.00335027
0.00233684
0.0306354
2.16444e-07
3.7241e-06
5.13683e-06
6.65839e-09
3.16971e-06
1.91793e-05
4.25535e-07
3.64036e-07
0.000193893
1.76118e-06
1.45792e-08
7.58118e-07
0.0160596
5.00277e-06
3.85817e-06
1.46392e-08
1.10508
0.000277803
5.43658e-06
7.25201e-05
3.94193e-09
9.27624e-05
0.000957322
2.94695e-06
3.55362e-05
1.28059e-06
9.10002e-07
6.71075e-06
0.000932595
8.34268e-07
2.53633e-08
1.02774e-06
3.51681e-07
0.000769326
3.11765e-06
9.58183e-06
3.45278e-08
6.97046e-06
4.932e-08
1.55282e-05
0.000253918
1.6465
7.61116e-07
0.000525058
1.76908e-08
4.94912e-06
2.23475e-05
0.0239084
0.000150483
1.75913e-07
5.24089e-06
0.00215804
0.000321763
0.000497646
1.79627e-05
2.23972e-06
1.0901e-10
0.000253516
2.86319e-06
8.81417e-08
3.79822e-06
3.53847e-06
5.30648e-06
2.13678e-07
4.05416e-06
0.000412077
1.1966e-06
1.08785e-07
10.0588
8.66084e-05
1.67198e-06
4.71956e-06
7.47775e-06
4.93467e-06
7.55015e-07
1.35555e-08
1.96124e-06
3.28587e-06
7.14544e-06
5.83929e-08
9.83575e-05
5.62605e-06
1.02788
0.000519044
0.000115746
2.87939e-05
5.3154e-06
4.02039e-06
3.63486e-06
0.00235532
3.44323e-06
1.7578e-07
2.25677e-07
3.53379e-06
3.30424e-08
7.17517e-07
2.04507e-07
0.00207843
0.000780131
1.05631e-05
0.000580844
0.000271263
4.14684e-08
1.09133e-06
8.92546e-09
7.66817e-09
1.58603e-06
0.000400361
7.07164e-07
5.69852e-06
1.17065e-05
1.76068e-07
0.000508142
1.04001e-05
1.82017e-07
0.0223079
1.16084e-09
1.11216e-06
1.94977e-05
0.000201014
1.26944e-05
8.74804e-07
0.000113275
7.75909e-07
1.26535e-07
9.51241e-07
2.85514e-08
0.000134126
1.73196e-08
0.000188313
1.59782e-06
5.55914e-10
3.47392e-07
3.28597e-06
0.000107688
0.96268
1.50129e-07
5.53969e-08
2.3726e-05
1.29548e-08
3.4964e-05
4.65913e-06
1.60791e-08
7.17867e-07
7.36858e-06
0.00959985
2.49583e-08
7.7939e-07
6.32622e-08
1.89799e-06
0.00284231
0.0021795
1.53925e-05
0.000929059
6.6533e-06
3.28507e-05
8.43954e-07
1.20228e-05
3.75582e-06
0.00354438
0.00018611
6.92687e-06
1.44126e-06
1.50245e-06
2.04076e-08
1.21983
3.21845e-08
0.00058052
2.03159e-06
1.07549e-08
0.0769034
0.000763781
0.000388308
1.16067e-05
0.000551513
6.6316e-06
3.84776e-07
1.56121e-05
0.0124425
7.57856e-06
0.00179907
1.10578e-07
1.03044e-06
7.69857e-05
1.29273e-07
2.66595e-05
1.47925e-06
0.000593018
1.59632e-06
271401
6.49419e-08
0.00229426
2.2827e-06
7.64414e-05
1.68946e-07
5.87768e-06
4.95429e-06
0.00217278
8.2056e-07
1.24648e-05
2.70439e-06
3.90284e-06
9651.44
6.31673e-07
7.47323e-07
6.58822e-07
7.76241e-10
2.27537e-06
1.20143e-05
7.80948e-06
7.11376e-07
0.0341768
2.6427e-09
2.51223e-08
3.69526e-05
6.48063e-06
258.781
5.07971e-06
0.124961
3.76038e-07
9.55796e-09
4.80561e-06
1.0703e-06
8.49314e-07
2.72167e-06
0.000227794
3.25706e-09
3.61614e-07
5.05876e-08
1.84842e-05
0.0548537
5.96408e-07
4.69812e-05
1.21238e-06
7.56614e-06
1.75936e-06
7.71212e-05
2.98321e-06
1.77499e-07
6.96574e-07
0.0017374
1.84994e-08
7.56751e-07
6.66365e-07
4.07894e-07
3.38074e-06
1.08573e-07
2.54361e-08
7.27932e-07
3.38825e-05
8.34164e-08
4.28009e-07
2.10646e-07
0.00036408
4.27652e-06
3.84096e-06
3.93302e-08
5.24382e-06
0.00106818
1.44049e-06
0.000164472
702370
2.20444e-07
4.82216e-06
3.92515e-06
0.000294708
1.44093e-05
0.000211211
7.43177e-07
6.90907e-06
9.56082e-05
6.94421e-06
9.32166e-09
2.30445e-08
8.49153e-07
3.3306e-07
3.61525e-06
2.73473e-07
1.30833e-05
7.25974e-07
6.59244e-07
1.02226e-06
7.10443e-06
5.10836e-08
4.16906e-06
2.5157e-07
8.47137e-05
2.33015e-06
2.51281e-06
1.96028e-05
1.67165e-06
1.08535e-08
2.16493e-09
1.46521e-05
6.19233e-07
1.77829e-06
3.3665e-07
0.000590573
0.00238925
2.57772e-08
0.000404489
7.7108e-07
1.50612e-05
0.000299677
0.000410331
9.75342e-07
0.000412597
6.7084e-06
6.00906e-07
114203
1.15996e-06
1.30141e-06
1.21197e-07
2.13337e-07
0.000394464
5.92046e-08
1.75753e-07
2.72059e-06
4.44731e-08
0.0883949
8.75097e-06
2.03054e-07
1.40478e-05
0.000330795
5.55579e-05
9.1586e-07
2.73088e-06
8.00124e-06
0.000424373
0.0029126
3.10361e-06
7.18536e-06
4.54172e-06
4.35097e-07
0.000258225
3.77707e-06
1.69047e-05
7.33823e-07
2.04465e-06
0.00094614
0.000607827
0.00327062
5.95458e-06
7.14731e-07
7.87079e-08
2.86202e-06
5.78382e-08
4.50055e-06
0.000279252
6.2661e-07
9.45662e-07
4.74492e-06
1.45122e-06
3.20507e-06
2.98463e-06
4.42434e-08
8.43406e-07
4.74885e-08
1.331
0.000390322
9.19136e-06
1.20395e-05
0.00305094
2.07644e-06
0.000229546
1.90608e-05
0.000517029
6.39065e-07
1.24514e-07
1.16326e-08
2.30325e-07
5.34977e-09
9.60251e-07
3.3832e-09
0.0229808
6.87508e-07
1.96064e-05
1.54198e-07
3.68916e-07
4.95268e-06
1.79021e-08
0.000372311
6.63278e-07
1.50399e-08
9.21464e-06
0.000506129
1.55755e-05
1.17308e-07
5.13973e-06
1.31022e-06
0.802038
6.61861e-05
5.89261e-07
3.80431e-06
0.00778081
3.02328e-06
0.00023156
8.0979e-07
3.13022e-08
4.75008e-06
2.35943e-05
6.45362e-08
3.96337e-06
2.78668e-13
1.21468e-13
1.14249e-07
0.48284
7.32869e-05
2.0751e-06
1.2268
6.41026e-07
7.05098e-06
1.17226e-06
0.000288711
3.0905e-08
8.65514e-07
1.48793e-06
5.86844e-08
0.00180576
0.0268736
4.13752e-06
1.69103e-06
1.78111e-09
4.11548e-06
1.41386e-07
0.0131894
4.28749e-06
3.18042e-05
1.20298
2.3439e-08
8.55598e-09
5.17742e-05
1.17146e-06
0.000156095
1.32596e-08
8.78902e-07
1.18677e-05
0.000159724
4.03313e-06
0.571129
0.000281386
3.69758e-06
3.96218e-05
1.88091e-07
1.16219e-05
9.66813e-05
1.98747e-06
0.000345989
4.21566e-06
0.000258527
7.62452e-05
3.27122e-06
3.37936e-09
9.38586e-12
2.34055e-07
1.80009e-06
1.09783e-05
0.000365275
5.97131e-08
3.45764e-06
3.5617e-05
1.84276e-06
2.92777e-09
5.7416e-06
3.2173e-11
9.40763e-09
9.5965e-08
3.91276e-06
0.0108132
1.41826e-05
1.81488e-07
0.00152355
0.000221964
7.57935e-08
4.15398e-06
1.59423e-10
6.4384e-06
0.00170294
1.47128e-05
1.38021e-06
4.10562e-06
0.00180072
3.43607e-06
1.48067e-07
8.77545e-05
2.01537e-07
9.03413e-06
9.53122e-08
5.55052e-07
0.000121435
7.34198e-09
4.15733e-06
6.42514e-07
8.09206e-06
289.901
1.8779e-05
3.24948e-07
0.000199392
0.000203671
2.13212e-07
6.46599e-07
6.93564e-05
1.57431e-06
0.00951646
1.10372e-08
0.00107398
3.88429e-06
0.000207171
5.63675e-06
1.08705e-06
4.24787e-06
2.63696e-05
4.01661e-06
5.13631e-05
7.9275e-07
0.00166147
2.71994e-06
0.000191641
2.26654e-08
2.57519e-06
1.99421
2.1982e-10
2.86346e-08
3.58518e-08
0.0473939
1.46509e-05
8.70738e-08
4.41454e-06
4.07424e-06
2.73447e-09
4.384e-07
0.000100133
6.44868e-07
7.07848e-09
0.000163882
4.83226e-08
0.00153513
4.5067e-08
0.000154236
2.5195e-06
3.45084e-06
1.34718e-06
2.35496e-07
1.8264e-06
0.00799822
1.07677e-05
0.000343692
0.000911768
5.30087e-07
3.76451e-07
7.00434e-05
1.5429e-06
0.00854114
1.33604e-07
1.36166e-05
4.35915e-06
2.56653e-07
4.68459e-07
4.74053e-06
3.58993e-06
2.70264e-11
7.11001e-07
5.80571e-06
5.63233e-09
0.000273827
8.64938e-06
1.94382e-07
1.94211e-06
7.38677e-05
6.93752e-07
1.85834e-05
1.69581e-07
0.00027486
3.99032e-06
4.07263e-06
2.71155e-06
8.19636e-05
9.93157e-10
7.9175e-07
0.000268028
1.03925e-05
0.000752396
1.48484e-05
7.63138e-08
1.3031e-07
0.00595954
6.65915e-07
0.000151884
1.18861e-06
1.08912e-06
6.95054e-07
9.58868e-07
2.32556e-07
0.000369896
133049
2.32185e-07
5.1398e-06
3.51925e-06
3.95655e-06
4.3322e-06
9.57872e-08
6.89898e-07
6.62551e-05
3.87641e-05
6.61837e-07
0.000734246
1.62037e-07
0.118433
2.057e-07
4.78849e-06
0.000314249
0.00174533
0.000624147
118.757
2.44008e-08
0.000364482
2.09186e-05
1.77627e-07
1.65158e-08
2.63261e-06
8.02571e-07
0.000259923
3.69643e-07
3.48808e-06
9.33057e-06
0.00194329
8.21417e-06
0.0124033
6.18798e-07
1.91219e-10
1.63736e-05
5.01765e-06
7.88474e-08
9.89311e-06
5.3587e-06
8.97432e-09
8.73984e-07
1.84707e-09
9.03797e-05
0.000497977
1.37384e-08
4.56528e-06
3.52929e-07
8.37619e-05
2.14796e-10
5.95332e-06
5.91638e-07
1.76932e-06
9.42902e-08
8.14662e-06
1.74943e-08
1.13495e-06
4.3502e-06
0.0029187
6.78393e-07
4.91815e-05
0.00247059
0.000401623
0.00127619
2.75785e-07
9.61239e-05
7.68705e-07
0.000131496
1.54772e-08
2.84014e-07
3.49771e-08
3.33811e-06
4.21806e-07
0.0537046
0.000268386
0.000239727
1.43269e-10
3.90734e-06
0.0378481
7.6171e-06
2.58232e-07
7.47506e-07
5.62196e-07
0.00212792
9.95761e-08
7.35066e-09
1.77187e-07
2.104e-06
0.00133778
3.97505e-06
0.000517871
6.54587e-05
1.9365e-07
2.0124e-07
1.07836e-05
0.000742971
1.11188e-07
1.00593e-07
9.95795e-07
7.87622e-07
0.000930907
1.42615e-10
1.51857e-05
1.78487e-07
3.88239e-06
5.05373e-07
0.00036904
1.21261e-07
5.23001e-06
8.39777e-07
1.66713e-05
0.0104402
7.12581e-07
8.38378e-06
0.000612891
8.48279e-08
0.000743366
4.47201e-06
1.14095e-07
7.63665e-07
5.25222e-06
1.34696e-07
1.59819e-05
0.00100411
3.39378e-08
7.25655e-07
4.94021e-06
1.70784e-05
7.75375e-06
0.000201345
1.73838e-09
7.26671e-07
0.000203185
0.000385157
2.16668e-07
0.0102007
2.96721e-06
4.87723e-06
0.000314794
2.30767e-06
0.0122359
5.07966e-07
9.27391e-07
1.17015e-06
7.84552e-06
1.30289e-07
0.000191621
5.02218e-06
3.03312e-07
3.3281e-05
6.47097e-06
2.19063e-07
1.53024e-08
1.76571e-09
5.68776e-09
6.73212e-07
1.39487e-07
4.89888e-06
6.50227e-05
4.30063e-06
5.01093e-07
5.53316e-06
3.63414e-06
3.65846e-11
0.000351443
0.310582
7.10665e-09
0.00013163
6.04119e-06
1.37382e-08
4.42144e-06
0.00420381
5.85747e-06
1.13724e-05
0.000304255
5.27158e-06
2.41983e-06
3.73709e-06
1.85924e-07
9.04062e-07
8.45179e-07
6.60314e-07
1.23756e-06
6.1704e-08
3.025e-07
0.000581756
6.30558e-08
4.72426e-06
2.08447e-07
1.96301e-05
1.2629e-05
3.6724e-05
0.138496
3.78124e-06
6.75349e-06
5.26373e-06
0.0649664
8.77471e-05
0.000210638
6.79185e-07
0.000190129
2.73237e-06
7.02097e-11
4.30475e-06
6.78209e-07
6.91069e-05
3.91602e-08
0.00318959
7.47457e-06
7.58576e-08
1.75979e-09
1.96395e-05
8.6204e-05
2.23216e-07
0.000716229
1.46282e-08
9.03154e-07
1.5612e-05
1.43248e-05
3.30393e-06
1.58281e-05
2.93073e-07
9.06901e-07
0.000136711
7.18205e-07
3.67022e-07
3.27184e-06
6.89272e-05
5.7596e-10
3.81469e-07
2.23726e-06
0.000418485
0.00018289
6.46966e-06
5.04909e-06
3.12804e-06
6.97087e-07
3.58243e-06
3.68744e-06
9.54443e-07
8.06316e-07
4.34439e-08
9.88847e-08
9.62709e-06
8.74515e-07
2.358e-09
5.61188e-10
0.00915097
1.71764e-08
1.49278e-05
0.000391883
3.11671e-08
1.78643e-06
4.22326e-05
8.9674e-05
4.75268e-07
3.46645e-07
3.66405e-07
2.68116e-06
7.51285e-07
1.74783e-05
0.000115804
4.48359e-09
7.9592e-06
0.000602343
6.45038e-07
8.06368e-08
3.62437e-08
3.00146e-08
2.58224
6.58839e-07
3.90191e-06
6.63667e-07
0.0666539
0.000245066
1.65961e-07
1.6854e-07
0.00210095
3.99878
2.56422e-07
3.54868e-09
2.15179e-06
4.65807e-09
1.90249e-08
0.000281877
7.8069e-08
4.63119e-08
0.000763906
1.17947e-06
4.68045e-06
0.00864672
0.00295079
9.83689e-09
5.97121e-05
3.09985e-06
1.67076e-07
1.27397e-06
5.26212e-07
3.74261e-06
1.19517e-07
7.63761e-05
6.10246e-08
8.2886e-06
0.000536387
4.37466e-06
2.32954e-07
0.00016711
1.70072e-07
3.13219e-06
4.73784e-06
0.000198549
5.22583e-05
4.61044e-06
5.15072e-05
9.11121e-06
2.23685e-07
4.362e-06
2.10886e-08
5.86415e-07
1.08113e-06
6.58419e-07
0.00025117
1.56342e-05
2.78481e-06
7.53277e-08
0.00033656
0.000393499
4.80492e-08
1.56679e-08
0.000399974
1.63381e-05
5.23736e-08
6.51319e-05
5.00284e-07
0.000110499
6.20397e-07
1.35497e-07
2.28403e-06
6.02934e-06
1.33255e-05
1.9445e-08
168353
2.26432e-06
0.00099249
2.00633e-06
1.08467e-05
0.00102358
4.56703e-06
1.76475e-07
8.01313e-06
4.3186e-07
8.91854e-05
3.85504e-08
0.000830464
1.15269e-08
4.62152e-06
1.45576e-05
1.50295e-05
1.64956e-07
1.40207e-05
3.41945e-07
0.000129731
7.51072e-07
1.48539e-09
2.72888e-06
3.78807e-07
6.43702e-07
0.000154593
0.00071817
1.08951e-05
0.00222178
8.78533e-05
0.0424915
4.64249e-06
1.82625e-07
1.24188e-06
0.000311308
6.9076e-07
2.77337e-11
9.71916e-06
1.83538e-05
2.0688e-07
1.67735e-09
1.19507e-06
4.99038e-06
3.43758e-06
5.71251e-07
0.0013433
9.96817e-08
3.46925e-09
7.21134e-07
0.000104749
1.90281e-07
5.8569e-09
0.00184771
8.59475e-08
3.88788e-06
2.97653e-07
1.89532e-07
1.0768e-05
2.2507e-07
6.95025e-08
2.13386e-07
1.39538e-05
0.00114877
3.49175e-06
0.000104765
5.25871e-05
5.44777e-06
6.59485e-07
6.85163e-06
1.0247e-11
2.88356e-08
8.17307e-07
6.16265e-05
1.5422e-09
1.55179e-09
2.02909e-10
7.20187e-07
0.000887379
7.47413e-05
0.0010135
1.30688e-05
7.01919e-07
7.14858e-09
0.000181327
6.40057e-06
0.00070972
1.59744e-07
8.59826e-07
3.63344e-08
4.11616e-07
3.05232e-10
1.44706e-05
7.58298e-06
5.97005e-07
8.80068e-07
6.42055e-07
6.32885e-08
1.52999e-05
0.000345775
8.29568e-07
1.49354e-07
7.15788e-07
1.26926e-05
2.09229e-07
3.46846e-08
2.87709e-07
2.60628e-07
6.87786e-07
570299
1.77563e-06
8.77779e-07
3.53065e-06
0.000336443
0.000742555
0.000841173
9.91958e-07
5.04598e-07
7.91322e-06
0.00051982
9.01035e-06
3.05214e-06
3.94256e-08
3.45378e-06
5.83743e-09
1.82225e-07
4.52568e-06
4.25751e-08
3.26631e-06
2.44424e-08
0.00028794
2.80281e-06
5.2535e-06
3.42324e-06
1.50772e-05
2.19815e-07
8.47411e-06
0.00194821
1.01454e-06
1.69507e-05
1.63468e-05
0.00187519
0.00169713
1.44466e-07
1.21297e-08
8.0001e-07
2.8299e-09
1.63277e-07
3.11695e-06
4.88686e-06
0.000724487
1.41238e-06
0.00268801
4.02188e-08
3.7584e-06
2.39895e-07
3.62828e-06
3.76456e-06
31.6644
0.000246027
1.0365e-07
9.07659e-06
4.81614e-06
4.4142e-08
0.00012089
6.57125e-07
7.70855e-06
4.9047e-06
5.61544e-10
2.21359
2.45405e-06
0.00848314
1.84841e-07
1.02194e-07
1.74028e-08
3.7586e-06
5.26724e-06
8.50095e-06
1.7298e-07
0.00035502
0.000515784
1.18526e-11
7.15012e-09
1.76139e-06
2.38553e-07
2.48332e-07
3.20169e-05
1.3305e-06
9.35989e-06
3.42714e-06
1.89715e-05
0.00136614
2.64845e-05
6.70533e-06
1.14506e-07
2.35073e-06
7.30035e-07
7.3669e-06
1.19451e-05
5.83018e-06
3.05936e-05
4.15653e-06
3.47201e-05
1.16646e-05
6.96353e-09
3.01661e-09
5.40103e-05
9.60535e-06
7.41037e-05
1.56952e-08
0.00105071
0.000238068
4.3108e-07
5.48693e-06
9.51264e-08
1.6767e-07
4.59541e-09
8.31644e-05
4.6299e-06
1.24195e-07
1.10809e-05
3.69141e-06
3.43881e-06
0.00080123
4.29107e-06
1.32925e-05
0.00274666
1.57571e-07
2.63429e-08
1.17991e-06
3.65543e-06
8.97805e-08
6.0778e-06
7.39095e-07
7.32188e-07
2.41802e-07
1.29724e-07
3.59189e-07
8.18507e-12
3.69286e-08
3.02894e-07
0.000394223
3.90798e-08
1.28709e-06
8.32996e-07
1.52257e-06
2.12953e-08
5.80744e-08
3.34604e-09
2.77028e-09
6.72941e-07
0.000513415
3.2378e-09
7.06349e-07
0.00929029
7.24566e-07
3.60847e-06
5.69556e-07
4.23444e-06
0.000200585
3.00055e-09
0.0476268
0.00722463
1.16006e-05
1.45826e-10
14814.1
5.64097e-07
5.18581e-06
4.16983e-06
0.000851907
1.27905e-06
8.64159e-07
5.82712e-06
5.17623e-06
1.13695e-05
4.86169e-08
4.94693e-06
0.0126223
9.72185e-05
6.87643e-06
0.000197234
2.93623e-05
2.16405e-09
2.73118e-06
0.000123801
0.00134419
0.00230079
3.40992e-07
7.67557e-06
0.00222471
2.76401e-06
8.68081e-07
7.54109e-06
2.31057e-05
0.000539484
3.06541e-07
2.18852e-07
7.70279e-06
7.51884e-06
0.000270381
8.08672e-06
7.64691e-07
3.77711e-06
0.000800663
7.29712e-06
5.51184e-06
0.00439394
0.0716896
0.00224629
0.0225665
9.09238e-09
5.99304e-06
6.31745e-05
6.12065e-05
3.74805e-06
4.52401e-06
7.22869e-06
6.11805e-07
0.000287204
3.50202e-09
8.17246e-06
0.000410499
7.34769e-06
0.0124057
0.00412349
0.00171398
233914
1.79498e-07
1.2367e-06
1.30162e-05
3.63692e-06
6.94997e-05
2.68799e-05
1.69581e-08
3.25469e-09
2.82976e-06
1.67662e-06
7.23831e-07
4.45759e-06
5.10955e-06
0.00231387
9.81645e-07
1.08939e-05
1.31163e-05
1.15189e-08
2.61668e-06
0.00116827
3.90175e-06
8.48943e-08
0.00252733
0.000163683
1.57088e-06
8.35301e-07
1.48797e-06
2.74864e-06
2.92789e-06
7.07257e-08
4.73388e-06
2.53246e-08
0.000519716
38.8878
0.00793982
5.03721e-08
7.57616e-08
1.2634e-07
0.000489414
2.31715e-08
4.20794e-06
1.54533e-06
1.143e-05
9.10456e-06
0.00043073
0.000306111
2.01611e-06
3.16402e-06
3.31797e-07
7.44057e-11
0.00024703
2.43398e-06
8.22918e-07
41344.8
7.76757e-06
1.14228e-07
1.14747e-06
0.0102248
8.18344e-07
1.03635e-05
0.00031275
2.04158e-06
3.15958e-05
5.53873e-07
3.77369e-05
6.62259e-06
0.00884057
1.32983e-05
4.6693e-06
6.73558e-07
1.07196e-06
0.000260042
1.22836e-07
5.38237e-07
1.09924e-06
1.24788e-05
5.4928e-06
0.00178696
1.27387e-05
0.000170567
3.25932e-06
8.01295e-07
2.79079e-06
2.36321e-06
2.53948e-05
5.49711e-08
8.70492e-07
0.504209
0.000238692
2.50306e-07
0.000326544
1.74141e-08
6.2442e-06
6.37252e-07
9.11059e-05
5.00406e-07
3.15432e-08
0.00304171
0.00243065
3.21986e-07
2.86589e-06
0.00306569
7.49797e-09
4.96101e-06
3.91264e-06
1.62169e-05
1.1603e-05
1.74381e-08
8.34619e-06
1.82345e-06
0.000267259
2.08819e-06
1.23492e-05
0.00133374
1.0615e-05
2.03905e-10
2.88282e-06
8.78136e-07
1.54219e-05
0.165558
6.96627e-06
0.0013036
0.239529
2.6613e-06
6.4187e-06
1.03287e-06
0.00686236
4.13731e-08
7.89503e-07
3.22564e-06
1.3605e-05
0.00332266
4.2573e-08
7.78694e-06
2.11419e-07
0.000342545
0.000861288
2.61265e-06
0.000849268
3.68707e-08
8.07983e-07
0.000877546
0.000181075
4.55739e-06
0.621227
1.04776e-08
2.6276e-09
8.14623e-08
2.67601e-05
1.24834e-05
1.27957e-07
1.04847e-05
6.14668e-07
0.44088
1.83993e-07
6.50937e-08
7.51454e-07
9.32056e-09
0.00167995
0.00169449
8.79498e-07
0.000248935
3.02247e-06
1.94119e-05
0.000545411
2.62527e-06
1.62736e-05
3.86363e-06
1.4355e-05
4.23298e-06
2.51222e-06
4.34526e-09
8.39987e-05
6.97704e-07
3.54787e-08
1.05816e-05
8.63598e-07
6.66091e-07
2.18106e-07
1.86401e-08
0.00180609
4.01085e-07
0.0134592
2.32048e-06
1.23886e-06
3.22003e-05
0.000572781
0.000417441
3.6594e-06
0.000397853
0.000399726
4.31007e-06
1.56774e-05
54749.6
0.000138097
1.81996e-09
6.22118e-06
0.000386286
5.54267e-05
2.55628e-06
0.0034703
0.00041991
0.00191381
0.00178422
2.73214e-08
5.70068e-09
1.73244e-08
7.52707e-07
9.45449e-08
1.51054e-05
0.000518793
3.77534e-08
0.000628352
7.12518e-08
1.0332e-08
9.49848e-07
0.000290347
0.000526933
9.41369e-06
6.9427e-06
0.000638811
8.85074e-07
3.52329e-08
2.23139e-06
5.36589e-08
1.50137
2.22405e-06
0.000668995
2.62868e-05
4.20704e-06
6.64005e-05
4.31876e-06
1.6048e-07
3.37406e-06
1634.57
7.28708e-07
0.000121868
4.20654e-06
6.95364e-08
6.54725e-07
0.0165239
0.0105491
3.85513e-08
5.85407e-06
0.000267322
4.39476e-07
8.66458e-06
0.000203441
0.000191012
3.18812e-05
2.72197e-06
1.1708e-08
0.000375183
6.48948e-05
0.00160464
1.43647e-06
0.011534
4.60755e-06
6.51008e-07
1.90455e-10
7.99132e-07
1.61847e-05
0.00183894
4.91992e-06
0.000195467
1.66983e-06
7.248e-06
1.06688e-06
2.88462e-05
1.28941e-05
4.423e-07
1.4109e-06
1.13775e-05
8.17331e-08
0.000517356
4.52107e-07
2.30245e-06
0.00018849
5.55959e-07
4.43109e-06
0.000173395
9.58383e-06
1.28077e-05
4.70586e-07
2.79197e-06
3.48698e-06
1.59826e-07
1.54315e-07
4.44842e-07
0.294622
6.7693e-08
8.25196e-08
1.53555e-05
7.18929e-07
8.0427e-06
3.80055e-06
0.000195226
3.28351e-05
1.20903e-06
8.94827e-08
1.27669e-08
0.161135
2.475e-06
7.4191e-07
1.37574e-06
0.000362514
3.51321e-06
0.0013956
0.00161583
1.12957e-08
0.000996302
0.0013601
1.37793e-07
1.09048e-05
0.000232045
7.44684e-06
8.25789e-07
8.59843e-09
8.49096e-09
2.21326e-09
7.01324e-09
3.48683e-09
1.54964e-09
1.09332e-08
9.30727e-09
9.33604e-09
4.21699e-06
1.7055e-05
1.58573e-07
5.42215e-08
0.000285508
1.48608e-07
115204
2.27334e-07
3.30981e-08
4.00148e-06
2.96576e-09
0.000469436
2.39563e-07
3.59583e-06
1.99261e-07
3.81831e-06
8.14024e-06
6.86141e-08
0.000101157
1.62311e-06
4.23795e-06
1.05861e-06
3.05586e-06
2.55313e-05
4.14166e-06
4.29983e-06
9.58431e-10
2.38345e-07
2.6692e-06
0.000107723
3.28946e-06
5.85125e-06
0.00316305
8.54545e-07
6.68648e-07
8.44427e-07
5.96305e-09
1.88241e-07
8.17976e-07
1.0437e-05
2.26442e-07
1.21363e-07
0.000867338
9.6357e-09
0.0920074
1.4794e-06
5.48455e-05
0.000850654
5.62305e-07
0.0775557
1.10049e-05
5.97694e-06
1.02684e-09
1.46408e-05
9.59617e-08
0.000401934
0.00318239
5.77231e-07
1.29023e-06
9.23587e-07
3.16623e-07
0.0237782
6.17736e-06
1.22727e-06
6.43669e-06
0.000102241
1.20603e-06
3.55588e-08
8.37177e-05
1.80026e-07
1.52611e-06
3.64248e-06
1.87989e-08
7.6723e-06
4.22121e-06
1.85379e-06
6.99114e-06
1.48247e-05
1.11763e-06
0.000194303
3.42836e-06
0.00145508
0.0358819
0.000516491
0.000848175
1.15561e-05
5.82796e-09
3.7259e-06
0.000646907
1.58575e-07
1.45042e-07
6.82296e-07
1.61048e-05
4.21595e-05
3.74129e-09
1.53659e-08
3.91874e-06
0.00027537
3.05801e-05
1.6461e-07
0.000313729
1062.11
6.18559e-07
1.54966e-05
0.000469765
0.000825842
0.000314136
1.23706e-08
0.0259923
2.58885e-06
1.66618e-06
0.000282324
0.00650957
3.22338e-06
6.49205e-07
9.25346e-07
2.56616e-13
4.15891e-06
4.90028e-06
9.17138e-08
2.36913e-07
4.39742e-09
0.00019184
8.33366e-08
2.62168e-06
1.65026e-05
5.17362e-06
2.88201e-07
3.25965e-07
1.12224e-05
0.00176403
4.47992e-06
6.77757e-08
3.42486e-06
3.09356e-07
1.35669e-05
6.8869e-06
2.22557e-07
0.000458723
2.39207e-07
1.37874e-06
5.58666e-06
1.50226e-07
3.10912e-07
1.11927e-05
3.60438e-06
0.000300964
814.802
8.63277e-07
0.000620337
8.16637e-06
9.61045e-06
7.33506e-07
1.56941e-07
4.87741e-06
6.60646e-07
0.000130483
4.03313e-06
6.63207e-05
5.59266e-06
8.26054e-06
8.6742e-07
2.11231e-06
0.00188714
8.90582e-07
4.15793e-06
7.19588e-08
1.48078e-07
2.74301e-05
9.41092e-09
1.2379e-06
2.24628e-07
1.49795e-05
4.07996e-06
5.70455e-07
0.000625915
1.2207e-05
6.60689e-07
0.000292689
0.00643637
1.13844e-05
4.35226e-06
7.33881e-05
1.60235e-05
2.15643e-05
0.00169627
0.000397665
0.000146249
6.23883e-09
3.58492e-06
2.35565e-13
0.000757612
1.16681e-07
6.03621e-06
4.19098e-06
9.73431e-06
4.85805e-06
8.60829e-05
1.44583e-06
4.11053e-06
0.000502563
5.43488e-06
0.000377456
4.7691e-06
0.000113315
0.000307268
9.14977e-09
6.73517e-06
9.509e-06
1.16979e-05
6.60161e-08
5.31521e-08
5.41373e-07
1.00922e-06
3.47162e-06
8.15873e-06
1.54168e-07
3.27754e-07
1.4094e-06
1.24408e-06
5.71467e-09
2.10919e-09
2.04577e-07
3.08573e-06
0.000114571
7.42004e-05
4.91034e-06
7.9719e-07
0.000151118
0.000629868
4.22286e-06
0.000240085
4.21454e-06
3.69437e-06
0.00037778
0.00545717
4.43921
4.20151e-06
2.19722e-05
0.00026671
3.32676e-06
0.000196489
0.000220601
3.13162e-06
1.13919e-07
2.36907e-07
3.26256e-07
9.70896e-09
1.52069e-06
1.31222e-08
1.57192e-07
0.0171574
0.00938851
3.28967e-06
0.00129929
1.04503e-05
8.43358e-07
3.37951e-05
3.29645e-07
5.75237e-06
0.00462534
8.59936e-07
3.68887e-06
3.88441e-07
3.97886e-06
0.656482
7.35951e-06
0.000196969
0.000103903
1.74459e-05
1.262e-07
3.86016e-08
1.68862e-06
0.00037234
5.72112e-07
1.65498e-06
195.634
1.32086e-09
0.000252251
8.70252e-07
0.000289604
1.48553e-06
5.03706e-05
1.23103e-05
4.32045e-06
3.68362e-07
3.92043e-06
1.98024e-06
0.00192818
7.87637e-07
3.61234e-07
6.85566e-06
7.03294e-06
4.75381e-05
6.38208e-07
3.55877e-06
5.50508e-08
1.2439e-07
0.00297049
0.000425298
4.63129e-06
1.66321e-06
3.74372e-06
3.86523e-06
1.44226e-05
1.32919e-06
0.000173963
2.98324e-08
2.52238e-06
0.000191153
1.26543e-05
0.255731
4.23217e-06
8.38245e-07
2.19318e-08
0.0057071
3.35294e-06
2.6738e-06
2.93529e-07
7.21051e-09
3.84118e-06
7.00236e-07
3.85397e-06
4.45827e-06
4.94417e-07
8.45593e-06
1.47689e-07
3.08006e-07
7.00699e-08
2.34425e-07
3.98012e-07
4.88481e-06
3.89727e-07
2.11722e-08
4.46732e-08
4.01205e-06
4.38007e-07
2.39961e-07
0.000727529
7.73529e-07
8.30668e-07
0.0105142
7.23084e-06
3.27339e-07
0.0014569
0.0101656
3.98017e-06
1.21951e-06
7.43235e-05
0.0056091
2.70504e-07
0.000376575
0.0278447
8.24483e-06
0.015506
4.01074e-09
1.08348e-05
2.80319e-09
3.35221e-08
1.7106e-06
3.84359e-05
7.42824e-08
8.6379e-07
4.33059e-06
0.000396008
5.17956e-07
1.59687e-08
6.64971e-07
7.30667e-06
8.09189e-06
1.11629e-09
5.2878e-06
5.42993e-07
4.8422e-08
2.28021e-06
6.43059e-08
0.000560706
0.00104029
9.1547e-07
8.60826e-08
9.06644e-05
2.80209e-05
0.000202356
0.000200907
3.88101e-06
1.49699e-05
7.40909e-07
3.0621e-05
1.99222e-07
1.17317e-05
1.94255e-06
8.13946e-10
6.92763e-07
6.40818e-07
1.11785e-07
1.83425e-06
9.50345e-08
4.1056e-06
0.00284151
6.93177e-06
1.46649e-05
3.72559e-06
1.4913e-05
4.34247e-06
3.73564e-06
0.379147
5.05336e-06
2.87803e-06
2.08863e-07
1.14648e-05
1.78201e-06
3.07065e-05
2.25095e-06
0.00421458
0.00806497
0.00296816
4.4454e-08
7.40863e-05
1.06676e-08
4.708e-09
6.26432e-06
5.32077e-08
6.392e-07
5.63531e-06
1.78302e-06
1.01699e-06
3.46931e-05
3.74351e-08
2.17564e-06
4.71989e-08
0.0174357
3.59222e-06
6.44268e-06
2.62333e-08
4.82222e-05
3.81106e-06
7.76323e-06
0.00394216
0.0213255
5.21272e-10
0.00397343
1.56614e-07
7.50021e-06
3.23999e-07
5.22686e-06
3.45794e-06
8.47731e-06
6.86627e-07
0.00160624
5.13027e-06
3.3474e-06
1.36795e-05
2.37079e-06
3.41393e-08
6.78093e-06
3.70359e-06
3.80132e-06
0.00146266
2.78476e-06
4.98347e-07
0.000338131
3.27132e-07
1.38464e-05
2.63028e-06
4.23388e-06
0.000243217
0.000825121
3.68597e-08
4.67795e-05
1.24809e-08
8.59702e-07
0.00037636
5.87119e-06
6.02991e-06
3.60997e-08
3.04919e-07
6.42611e-06
2.99168e-06
2.25459e-05
5.67987e-05
1.82493e-07
6.83463e-08
2.48032e-06
3.9528e-06
6.17751e-05
8.92672e-07
32.8955
1.02791e-05
1.07377e-08
1.25774e-05
2.90895e-07
7.17487e-10
6.64201e-07
4.50638e-09
1.2956e-07
0.000392346
9.64287e-07
4.47407e-06
0.130381
1.58956e-07
0.000324185
0.0148351
0.000592455
1.4596e-05
2.07501e-05
1.90665e-06
1.05081e-07
0.000105273
7.05799e-08
1.67454e-07
6.61806e-07
2.08943e-07
5.88375e-05
1.09381e-06
2.45356e-06
8.87881e-07
0.00419673
0.000356722
1.49239e-06
8.20759e-07
4.66093e-06
4.73109e-08
3.87184e-13
5.06521e-05
6.3352e-08
5.73352e-13
2.6282e-07
1.82108e-06
7.94774e-07
4.10556e-06
4.6917e-05
2.36415e-06
4.14936e-06
1.27422e-06
5.75662e-06
2.03971e-08
8.21933e-06
1.40561e-05
2.41206e-06
1.18971e-05
1.20297e-07
3.22841e-05
1.15978e-07
1.00274e-07
2.15957e-07
0.00332088
0.000109457
1.14472e-05
4.14039e-05
0.00183158
4.25919e-06
1.25397e-08
0.00039579
9.19483e-09
1.32143e-07
2.11616e-08
7.98659e-08
0.00022342
0.000159931
8.22753e-05
1.16918e-05
3.93458e-07
2.66767e-07
5.8809e-06
6.70365e-07
2.27086e-08
1.43344e-05
7.90101e-06
0.000180246
0.000986282
1.99307e-06
1.98805e-07
1.01977e-09
0.000271065
5.14947e-06
2.87642e-06
1.24725e-08
7.64954e-08
1.22615e-05
0.000187725
0.000220504
3.44526e-07
2.44856e-06
6.63608e-05
7.06166e-07
9.67394e-07
0.00250158
1.05618e-08
1.38545e-07
0.000363474
0.00952928
1.98865e-07
0.000408199
4.33065e-07
0.000235361
5.29168e-08
3.47828e-08
1.91864e-07
6.76545e-06
7.8691e-06
0.00325218
1.70395e-05
1.83193e-09
8.48575e-07
2.43656e-06
9.17092e-06
3.39005e-08
8.45924e-07
3.95537e-06
3.55416e-06
3.49548e-07
0.000296449
7.4315e-07
1.96461e-07
7.59416e-06
2.27435e-07
4.28048e-09
0.000890702
9.15706e-08
3.59177e-06
1.87421e-11
8.66713e-07
4.10933e-05
6.4666e-09
0.000619744
0.000440175
0.00992991
2.15575e-09
8.17446e-07
3.61264e-07
1.66583e-08
1.58164e-05
9.35977e-07
7.02926e-07
0.00989839
2.91886e-08
1.52773e-06
3.94107e-07
1.92264e-06
3.21471e-06
1.10414e-06
0.000227396
1.11932e-05
4.68476e-07
8.8463e-08
4.4108e-06
5.18513e-07
2.22585e-06
4.52051e-07
9.20123e-09
7.89693e-07
4.02308e-06
3.12809e-07