/*--------------------------------*- C++ -*----------------------------------*\
  =========                 |
  \\      /  F ield         | OpenFOAM: The Open Source CFD Toolbox
   \\    /   O peration     | Website:  https://openfoam.org
    \\  /    A nd           | Version:  8
     \\/     M anipulation  |
\*---------------------------------------------------------------------------*/
FoamFile
{
    version     2.0;
    format      ascii;
    class       volScalarField;
    location    "9e-05";
    object      epsilon;
}
// * * * * * * * * * * * * * * * * * * * * * * * * * * * * * * * * * * * * * //

dimensions      [0 2 -3 0 0 0 0];

internalField   nonuniform List<scalar> 
23640
(
6.66496e+08
5.77287e+09
3.06696e+07
7.10441e+12
4.85343e+09
1.23596e+11
9.7078e+09
3.81572e+09
3.03471e+10
2.85852e+11
8.34108e+11
3.5556e+10
4.49835e+08
5.01976e+09
1.21225e+11
3.00953e+10
2.59141e+08
5.77641e+11
5.28947e+11
6.45975e+10
6.70299e+11
2.04184e+08
6.50226e+11
1.01687e+12
3.8159e+09
1.79048e+10
1.67066e+11
6.71119e+10
1.41743e+08
1.10533e+09
2.90297e+08
5.53283e+11
6.78942e+11
4.60159e+10
8.04924e+10
1.2651e+11
2.72605e+08
2.02874e+08
6.58158e+08
1.68434e+12
5.88554e+10
2.91956e+10
5.78665e+09
7.25519e+08
4.87951e+12
2.69705e+11
3.94624e+08
2.38207e+10
2.76199e+11
3.38014e+09
3.11305e+10
4.92468e+11
1.5351e+11
5.12938e+08
6.92005e+12
3.89365e+11
1.39304e+11
5.71912e+09
7.7228e+09
1.32056e+13
2.82393e+08
2.12641e+11
2.76075e+12
4.91386e+11
7.56175e+09
4.92838e+11
2.94595e+09
4.10686e+09
1.1439e+12
5.29196e+09
3.25937e+12
4.59768e+10
6.05786e+11
2.78704e+08
3.20239e+10
3.39663e+12
1.83725e+12
4.28377e+08
5.31851e+11
2.25739e+12
3.00831e+11
1.57017e+11
8.71784e+09
8.68477e+09
7.26437e+09
5.08455e+11
4.9528e+11
2.77141e+12
9.46427e+11
1.10314e+11
6.65351e+09
5.45081e+09
1.55616e+11
5.66017e+11
4.66221e+11
7.31958e+08
4.94277e+11
1.98373e+11
6.48392e+09
1.73981e+11
1.48835e+11
4.97997e+08
1.25237e+12
2.64106e+08
8.28743e+10
1.8897e+08
1.43101e+13
3.73518e+08
3.28898e+10
6.01141e+09
2.42095e+08
5.96589e+11
3.45815e+10
6.1253e+10
7.31972e+11
1.71025e+08
1.19699e+11
2.22413e+08
6.06001e+08
1.14515e+09
2.43517e+12
4.11169e+11
1.70478e+11
3.55825e+11
1.20695e+11
1.3559e+12
2.05104e+10
2.62143e+11
1.16539e+11
6.15672e+10
7.87884e+10
1.17914e+11
4.46209e+08
1.42178e+11
3.10688e+08
4.55258e+12
7.7375e+11
4.0185e+09
8.02511e+11
5.03533e+11
6.00844e+09
1.39541e+11
6.18259e+11
8.40013e+11
7.61094e+11
4.48486e+09
1.00985e+12
1.45349e+12
7.84602e+09
1.25251e+12
3.47157e+09
1.9612e+11
8.02271e+09
4.1708e+12
9.0999e+10
1.78243e+08
1.00255e+10
4.11517e+10
2.78489e+09
1.62451e+11
1.0816e+11
2.42744e+11
1.28259e+11
1.07877e+10
1.32313e+08
1.01537e+08
6.88559e+12
3.33642e+11
1.28779e+13
1.15488e+11
2.40529e+10
6.797e+11
2.88558e+10
3.19696e+10
4.87059e+12
5.20551e+12
6.23097e+10
5.68915e+11
2.35446e+12
1.48557e+09
4.82974e+12
7.42959e+11
3.948e+09
6.343e+10
1.72653e+08
3.59371e+11
1.15057e+11
1.42028e+11
1.96415e+13
6.81581e+10
6.57706e+10
8.8137e+11
7.16496e+11
7.90262e+09
1.83823e+08
1.81507e+12
8.39039e+10
1.49454e+11
8.56763e+11
1.99305e+11
5.92409e+11
1.66695e+08
2.38398e+08
2.72769e+10
5.53858e+11
7.27792e+09
1.02713e+12
6.58352e+11
4.13446e+11
6.19579e+12
4.81353e+09
4.14187e+09
8.11137e+08
7.25932e+09
3.5512e+11
6.76621e+09
2.64096e+10
6.33244e+10
8.99311e+09
1.7148e+08
8.55633e+08
8.32716e+11
5.94944e+11
3.69684e+10
9.59581e+11
3.36231e+10
2.25733e+10
3.95058e+11
2.10346e+08
6.68031e+09
6.75618e+08
2.14546e+08
5.56097e+10
4.35278e+09
4.0378e+10
1.51541e+11
2.95506e+12
7.06591e+09
7.95464e+09
4.13628e+11
1.49905e+11
1.19193e+12
5.87809e+10
2.59627e+10
6.66599e+12
3.30679e+08
1.60684e+09
3.25509e+11
2.37878e+12
1.29274e+12
1.13306e+13
3.22361e+10
3.87846e+08
5.20547e+12
6.81774e+09
1.68194e+12
1.22353e+08
3.07459e+08
1.44336e+13
1.56881e+13
6.70823e+12
2.55321e+08
1.25801e+11
3.23906e+10
1.72094e+08
5.94251e+09
1.41596e+11
7.21605e+09
6.43912e+09
4.85722e+11
1.57619e+11
8.3786e+07
4.25452e+12
1.67632e+13
2.6923e+11
4.46221e+10
1.76342e+08
4.38224e+11
4.80833e+11
3.13652e+10
1.50631e+12
1.55743e+08
3.64505e+11
9.17659e+11
3.11601e+10
2.29705e+11
1.42163e+10
1.1427e+11
1.93779e+10
8.9604e+11
1.11967e+09
2.61935e+08
6.52962e+09
1.03556e+10
7.86825e+11
6.10287e+09
5.93289e+10
2.96873e+08
2.23549e+10
4.90581e+08
3.4525e+11
4.95115e+11
3.10311e+11
5.3479e+09
7.33275e+11
9.47081e+07
1.23407e+11
2.07755e+11
6.87477e+12
6.37721e+11
2.34262e+08
2.07009e+11
4.86335e+12
5.39678e+11
5.85368e+11
1.39668e+11
1.36028e+11
5.51735e+07
4.70768e+11
4.48244e+10
8.76704e+08
4.43826e+10
8.20002e+10
6.56028e+10
3.06392e+08
2.33347e+11
1.89824e+14
4.43984e+09
1.25488e+09
8.95309e+10
4.01139e+11
3.52455e+09
6.46177e+10
8.80628e+10
3.65239e+09
5.12007e+09
8.01084e+11
1.45344e+11
6.26259e+09
2.17026e+10
5.51499e+11
6.96871e+11
8.84051e+10
5.47785e+11
9.39417e+11
5.74826e+11
1.99178e+11
3.36891e+10
3.30941e+10
5.56687e+10
1.47488e+13
2.27514e+11
3.38296e+08
2.16888e+08
7.91814e+10
1.15173e+08
2.94178e+09
2.55208e+08
2.8079e+12
8.4648e+11
1.10975e+11
6.9687e+11
5.04455e+11
4.52007e+08
6.80619e+09
8.05871e+07
6.56236e+07
1.72816e+11
5.30875e+11
1.15709e+09
4.03806e+11
1.554e+12
2.29628e+08
5.91465e+11
1.19048e+11
3.24295e+08
1.95246e+13
9.11555e+07
4.46507e+09
1.38768e+11
5.86785e+11
1.50341e+12
5.89754e+09
6.60012e+11
6.26098e+09
2.39071e+08
1.73733e+11
9.76224e+07
1.64179e+12
1.16193e+08
4.61601e+11
1.58193e+11
1.08103e+12
1.53264e+11
1.07552e+11
1.07085e+12
5.45973e+11
2.49035e+08
3.70824e+08
2.01725e+11
3.34878e+09
3.26671e+13
1.37052e+11
8.46559e+07
4.31535e+08
2.20201e+10
1.21745e+13
1.50817e+08
1.37643e+11
3.03777e+09
1.54486e+11
2.3234e+12
8.05019e+12
5.90185e+10
1.01699e+12
5.82043e+10
2.25989e+11
5.38366e+08
1.03741e+11
5.14308e+10
1.32701e+13
4.71029e+11
2.25603e+10
1.56044e+11
2.97194e+11
1.06733e+08
4.88817e+11
1.60868e+11
7.06074e+11
1.32107e+10
2.06978e+08
4.07422e+12
5.55608e+12
6.4219e+11
9.82123e+10
9.49103e+11
3.91132e+11
1.19518e+11
4.28882e+11
3.02525e+13
9.07733e+10
3.01449e+12
1.21653e+11
2.99997e+11
2.67095e+11
4.57107e+09
2.05076e+11
1.63928e+11
6.35028e+11
1.74664e+11
3.77539e+06
3.01524e+09
5.24757e+12
1.54718e+11
6.38934e+11
2.55637e+08
1.80731e+10
1.19483e+11
1.96276e+13
1.75382e+11
1.03721e+11
2.79384e+10
3.7857e+10
9.19723e+07
1.33621e+11
1.15106e+09
1.39177e+11
4.21431e+11
1.74613e+11
6.96549e+10
7.27948e+10
1.0283e+09
6.26413e+12
7.2509e+07
1.29367e+09
2.36006e+11
8.84804e+09
3.70875e+09
1.99821e+11
6.14001e+12
8.36025e+09
2.15638e+08
5.08204e+10
2.92598e+11
1.11437e+11
4.25798e+11
7.38826e+11
2.01198e+08
3.07041e+08
3.84764e+08
1.35456e+11
1.41473e+13
4.26194e+08
1.36308e+12
4.30896e+09
2.13046e+10
1.53171e+11
4.11204e+11
5.39408e+11
2.71512e+08
6.97568e+08
1.60047e+12
1.04059e+08
4.77605e+09
8.57649e+08
6.69609e+09
1.05033e+11
1.83622e+08
2.54554e+08
4.52807e+08
2.60326e+11
8.08897e+08
2.51141e+11
3.97066e+11
6.31524e+11
3.75222e+10
3.65745e+10
1.61336e+08
2.42075e+10
1.0538e+12
1.49818e+11
4.45362e+11
1.4717e+06
1.17783e+11
1.66158e+10
3.47817e+10
6.17224e+11
9.25201e+10
5.83078e+11
7.85943e+09
2.40509e+10
9.13163e+11
2.12559e+11
2.94486e+11
3.79531e+11
5.54202e+08
1.59631e+11
1.22569e+11
3.65314e+08
6.90333e+10
1.82079e+10
8.89793e+08
4.38501e+09
2.19826e+10
3.10962e+08
7.07512e+09
1.19272e+11
7.75581e+11
2.28721e+09
2.39999e+09
4.29107e+11
4.36034e+09
4.84242e+11
1.78846e+08
4.14918e+11
6.9075e+08
4.82421e+09
1.41884e+12
7.62481e+11
4.59499e+12
7.61081e+09
1.08587e+12
5.01402e+09
2.06852e+11
5.10624e+11
6.37228e+11
2.22449e+10
5.69364e+11
5.50183e+11
1.64934e+11
8.82637e+06
4.81888e+09
4.30935e+09
1.82308e+08
2.1245e+08
5.30117e+11
1.52322e+11
4.84266e+11
1.09604e+11
3.36323e+08
3.61089e+12
5.22353e+09
2.47024e+08
9.29162e+10
5.41393e+11
9.32439e+11
1.80299e+10
1.08977e+11
1.75356e+10
5.70932e+11
2.48412e+12
3.75897e+09
6.16611e+10
2.10615e+10
7.06948e+09
4.74896e+11
6.03269e+10
1.44537e+11
1.0522e+09
1.82582e+11
9.9726e+11
6.43794e+11
1.64605e+13
2.14077e+11
1.16915e+09
4.90761e+11
1.25743e+11
8.22024e+08
3.66766e+10
6.18287e+11
1.03538e+09
3.8213e+09
3.26697e+10
1.92415e+09
1.44797e+11
1.19197e+11
2.33253e+11
5.6599e+09
3.06087e+08
4.88001e+11
5.50632e+11
5.95066e+10
3.20656e+10
2.5839e+12
5.45375e+09
4.71352e+11
3.84612e+10
6.01828e+11
7.93308e+08
1.18006e+11
8.83542e+07
4.14435e+09
2.82577e+09
1.45669e+09
1.30895e+08
7.15339e+12
7.19037e+08
4.04404e+10
2.51587e+08
1.17959e+11
2.28239e+10
1.88348e+11
1.13705e+12
4.09754e+08
6.26521e+11
5.42144e+09
5.95148e+11
1.43661e+11
2.31704e+08
3.37352e+10
1.55308e+11
6.50507e+11
8.39451e+11
6.62392e+09
6.16792e+10
3.75673e+13
5.11742e+11
7.46918e+11
4.95986e+08
1.12886e+10
4.97656e+10
2.57339e+11
1.60325e+08
2.57258e+11
3.38006e+08
6.49462e+08
1.40134e+09
1.12366e+12
8.20488e+11
3.15656e+10
4.17008e+11
5.22827e+09
2.31218e+10
1.36546e+11
4.85864e+11
2.48256e+08
5.61712e+08
4.7962e+09
4.28033e+08
1.6561e+12
1.26293e+13
3.29034e+09
4.89902e+09
4.18441e+08
3.98967e+10
2.37533e+08
9.80829e+12
5.39675e+10
3.13024e+11
4.70784e+11
1.35811e+08
7.78491e+11
7.45934e+11
5.64304e+09
4.42115e+11
2.35117e+08
1.28482e+11
6.69018e+10
1.05572e+12
3.4155e+10
1.56814e+12
4.82266e+11
5.12046e+10
1.33272e+12
2.64432e+08
3.29482e+10
1.94106e+12
1.38343e+11
1.74131e+12
9.04665e+10
5.68891e+11
1.56576e+12
3.9225e+11
1.95053e+08
3.55054e+08
1.19416e+11
1.67201e+11
2.38878e+10
6.39821e+11
1.21677e+11
9.86138e+10
2.27702e+11
1.51827e+11
1.39901e+08
8.3355e+10
1.79892e+07
2.07058e+08
2.66251e+08
6.99543e+10
6.23211e+12
7.75563e+09
2.64635e+08
1.70789e+12
1.16127e+12
1.36243e+08
3.27292e+10
3.64879e+11
5.76254e+10
1.81652e+12
7.8218e+09
2.18918e+10
4.00256e+10
1.87484e+12
3.65022e+11
2.44388e+08
4.7495e+11
2.76982e+08
1.65922e+12
1.77286e+08
8.5806e+08
3.57051e+11
6.54648e+07
3.49472e+09
6.67471e+08
5.87734e+09
3.30305e+09
1.35055e+11
4.13434e+08
4.90618e+11
2.37382e+12
2.01803e+08
7.05381e+09
6.45238e+11
1.61691e+09
1.04162e+13
2.31559e+11
1.0359e+12
4.77878e+10
5.54627e+11
8.13416e+10
1.1525e+11
4.39297e+10
2.6353e+11
3.54404e+10
9.65341e+11
4.82111e+08
8.78121e+12
2.45166e+09
4.354e+11
1.09243e+12
1.19901e+11
3.39414e+11
7.85203e+07
1.16291e+12
1.8169e+11
1.56015e+13
1.40237e+11
1.85839e+08
6.5474e+10
3.46647e+10
8.74102e+07
1.31471e+11
7.09074e+11
8.12683e+08
2.46998e+08
1.00154e+12
2.51764e+10
2.25333e+12
4.03047e+08
1.75093e+12
1.56346e+10
1.23113e+11
4.24168e+09
2.32217e+08
1.64899e+11
3.38188e+13
2.37219e+10
5.39591e+11
1.31844e+12
8.30404e+08
2.32432e+11
9.50621e+11
4.62616e+09
1.35261e+13
3.98277e+11
1.00736e+11
8.11852e+09
3.95028e+12
1.18786e+11
3.48101e+10
3.02562e+09
9.60116e+11
3.02767e+12
6.86153e+10
1.63999e+11
1.58348e+12
8.10046e+10
2.70319e+08
1.46581e+11
6.31161e+11
6.70223e+08
1.31713e+11
2.6497e+08
4.88972e+11
3.50156e+10
3.56434e+09
7.73955e+10
2.72161e+11
7.4762e+07
5.51778e+08
4.92793e+11
8.3895e+10
7.38553e+11
3.35728e+10
1.30348e+08
2.42311e+08
4.3164e+12
6.89286e+08
2.3451e+12
4.84896e+09
1.53218e+09
4.1101e+08
1.3405e+11
1.53775e+09
5.1972e+11
7.59368e+06
4.21222e+09
1.29621e+11
1.95015e+10
1.54415e+11
8.82167e+10
5.30007e+08
1.02647e+09
5.01714e+13
2.06353e+11
4.1597e+08
7.25717e+11
2.42484e+08
2.90196e+12
1.12331e+11
2.63268e+11
1.8667e+12
2.76402e+12
7.43898e+11
7.37598e+09
1.97144e+08
1.61985e+14
5.86056e+11
2.69211e+08
1.09066e+08
1.1456e+11
1.32974e+09
4.93693e+11
3.13775e+08
3.79536e+11
1.26934e+11
2.21882e+12
7.92269e+10
9.67853e+12
2.99422e+09
1.59237e+08
1.36245e+11
3.59439e+10
1.57541e+11
5.91807e+12
8.59029e+10
5.39786e+11
1.92768e+10
2.30487e+08
8.71943e+11
5.82003e+11
1.35664e+12
7.47709e+09
3.0647e+08
6.00667e+11
5.77772e+07
1.27553e+11
2.46284e+10
1.36288e+10
1.69041e+08
3.00869e+11
1.21617e+08
2.95914e+11
1.03353e+11
7.8175e+13
7.29106e+08
2.28844e+11
9.43718e+12
5.65117e+11
1.39366e+12
2.24871e+11
7.06423e+11
1.14235e+09
1.78223e+12
9.32172e+07
1.27012e+11
1.66962e+08
2.79418e+09
2.30307e+11
1.60969e+13
4.88757e+11
5.71012e+11
3.08093e+07
6.92443e+10
6.03963e+12
1.54133e+11
1.11641e+11
1.4775e+09
5.07874e+09
1.89894e+12
3.59098e+11
6.51176e+07
5.79011e+11
1.48054e+11
1.42238e+12
1.04183e+11
1.53736e+12
6.85482e+11
2.43605e+08
2.697e+08
6.05046e+10
8.2011e+11
1.89656e+08
1.25143e+11
8.68505e+09
1.3391e+09
1.2038e+13
5.59205e+08
2.3054e+10
2.56086e+08
8.87836e+10
5.48681e+09
5.58058e+11
1.07809e+09
3.60537e+10
2.41072e+10
3.49026e+10
2.96462e+13
6.61358e+09
1.78371e+10
6.50182e+11
4.96963e+08
8.63721e+11
3.83157e+09
1.60482e+11
4.65049e+08
6.51903e+10
1.29106e+11
3.31939e+10
2.31114e+12
2.48018e+11
5.50822e+09
3.37101e+10
3.75905e+10
1.85277e+10
5.94768e+11
1.6891e+08
5.71066e+08
1.12472e+12
5.27284e+11
1.31447e+09
9.72217e+12
5.46447e+09
6.41434e+10
1.999e+12
2.23515e+09
2.58395e+13
7.00497e+09
7.08667e+09
1.29313e+11
1.37107e+11
1.05945e+09
4.43971e+11
6.95484e+10
1.05738e+11
2.08571e+11
2.09251e+11
3.37041e+08
8.16641e+11
2.64093e+11
1.59078e+08
8.94768e+08
2.27774e+08
8.50084e+09
1.23464e+12
1.3563e+11
3.51534e+09
9.82913e+09
5.06326e+10
7.37558e+11
5.42078e+11
1.56564e+12
7.18885e+07
1.14637e+12
7.84936e+10
2.78277e+08
1.59303e+10
1.34239e+13
2.05018e+12
2.60214e+10
5.15689e+11
8.44918e+10
7.20412e+09
5.2124e+10
2.69948e+08
1.17597e+09
4.88697e+08
1.08947e+11
1.36704e+09
4.6698e+08
1.53427e+09
1.45217e+12
5.43184e+12
8.48921e+09
2.74543e+08
2.65082e+11
6.91037e+10
2.43324e+11
2.568e+12
9.09875e+10
9.74513e+09
3.18701e+10
4.58942e+12
1.26946e+12
5.91839e+11
9.99106e+08
4.94916e+11
3.66927e+09
5.87502e+11
4.30075e+10
1.25189e+10
9.69474e+11
4.75687e+08
2.5941e+12
2.06423e+10
1.44765e+09
1.54377e+08
1.75556e+11
3.65366e+11
2.11169e+11
5.43014e+12
1.16664e+08
2.81614e+11
7.5036e+11
5.66255e+11
6.1073e+09
1.33792e+11
2.78794e+08
8.48304e+09
1.08115e+12
4.64052e+08
1.45335e+11
8.96076e+10
2.78566e+11
5.08415e+11
1.18926e+11
1.71952e+11
5.39472e+11
1.04754e+13
6.48438e+10
6.45803e+10
3.89556e+09
1.15784e+09
1.07075e+11
6.35526e+11
1.4697e+09
5.3819e+08
3.70499e+08
1.10999e+11
1.51217e+10
6.82213e+09
8.51464e+07
1.96948e+08
5.89264e+12
1.90159e+08
8.19262e+09
7.18971e+11
4.2434e+08
1.75694e+09
2.5742e+11
7.41406e+11
8.56193e+09
3.07599e+08
3.15947e+08
3.8351e+09
4.68663e+09
2.19592e+11
3.47464e+11
1.37774e+12
7.90848e+10
7.53717e+12
4.34955e+08
8.96001e+08
1.72865e+08
2.56252e+08
2.08468e+11
8.71726e+08
4.70472e+10
8.6335e+08
4.16458e+12
5.78481e+11
2.48547e+11
2.41853e+11
5.69791e+12
2.20012e+11
3.2831e+08
1.71344e+08
8.10983e+09
9.28303e+11
1.95671e+08
4.82345e+11
3.14193e+11
1.21024e+08
8.98306e+11
1.42811e+10
3.57305e+11
5.83358e+12
3.13378e+13
1.98867e+08
2.56103e+11
1.23079e+11
2.5245e+08
1.82458e+09
3.27882e+09
4.65531e+10
2.49086e+08
3.63082e+11
6.79818e+12
7.64487e+10
7.22439e+11
5.35341e+10
3.87595e+11
5.4868e+11
2.56852e+08
1.99074e+11
9.00453e+10
5.62745e+11
9.42619e+11
4.95545e+10
2.05774e+11
5.71254e+10
3.49885e+11
1.00385e+11
3.75862e+11
2.62874e+11
1.80663e+11
8.30709e+08
5.80735e+11
6.19875e+10
3.64138e+09
5.81595e+08
5.34192e+11
5.61369e+11
1.29129e+08
2.54897e+08
5.84059e+11
5.42615e+11
1.49519e+08
1.17678e+12
9.85145e+08
6.5894e+11
8.40941e+08
9.81785e+09
8.00551e+09
4.95762e+09
2.96895e+10
1.97502e+08
5.95112e+06
1.31541e+10
1.00943e+12
6.09205e+09
6.54528e+10
1.03935e+12
3.40251e+10
2.49154e+08
8.14896e+10
3.89416e+11
1.28888e+12
4.18701e+11
9.17184e+11
8.29643e+07
3.47206e+10
7.95697e+09
2.58868e+10
1.27569e+09
3.41224e+10
2.9876e+08
3.36373e+11
5.50954e+08
1.00181e+08
7.67113e+09
4.65749e+11
9.00216e+08
5.01692e+11
7.90883e+11
6.74414e+10
1.95405e+12
4.58202e+11
5.61005e+12
8.86947e+10
1.08857e+11
5.73287e+09
5.17778e+11
1.07704e+09
3.41123e+07
1.49154e+10
5.14992e+10
2.15367e+08
1.80986e+08
5.76558e+09
3.24173e+10
9.6746e+10
1.98957e+10
1.62661e+13
1.88546e+11
2.01988e+08
4.44926e+09
6.26551e+11
5.14531e+09
9.93409e+11
4.69249e+14
1.27892e+11
7.00449e+10
3.51859e+08
4.52092e+11
9.42745e+10
2.51924e+08
1.30216e+09
2.78202e+08
1.0004e+11
1.07632e+12
3.92342e+10
6.72376e+11
2.1252e+11
1.27402e+11
9.0043e+08
2.25645e+10
3.24306e+08
1.74198e+08
1.08949e+09
7.13507e+12
8.3361e+08
3.12564e+11
3.1631e+07
4.38803e+09
1.46229e+12
2.83241e+11
1.05192e+12
3.77789e+10
7.20703e+08
3.02819e+11
4.90859e+11
6.37142e+10
7.12879e+11
1.00554e+11
5.27714e+08
2.97764e+08
3.26301e+08
2.9201e+11
5.95105e+10
6.05209e+10
1.12986e+11
2.89278e+11
8.73901e+08
3.47776e+11
1.30387e+11
5.29135e+11
6.04401e+09
1.84733e+08
4.90565e+09
2.81086e+10
2.44054e+08
1.36921e+12
2.84199e+08
2.82831e+08
1.24207e+09
1.75927e+06
1.89596e+11
1.46557e+10
7.7285e+10
5.31457e+11
7.95263e+11
1.31512e+12
1.23674e+09
3.55709e+11
7.54499e+10
5.91031e+11
1.47816e+10
1.37975e+10
3.53818e+08
6.80595e+10
2.05224e+08
2.71803e+08
8.21186e+10
1.16197e+08
1.12598e+11
1.91524e+08
1.46348e+12
9.51167e+11
8.13342e+10
3.74254e+09
4.65833e+10
5.22411e+09
6.30015e+10
1.07729e+13
1.26262e+09
2.73662e+11
4.66715e+10
2.42195e+12
3.18143e+12
2.27612e+08
8.56557e+07
6.20761e+08
6.7271e+07
2.61301e+08
9.50149e+10
1.05358e+11
7.21357e+11
2.68525e+11
4.38341e+12
5.12994e+11
4.60678e+10
2.36847e+08
9.07628e+10
5.07521e+10
2.90632e+10
3.38326e+12
1.77261e+11
2.90936e+11
1.25882e+11
2.03929e+11
6.83147e+11
4.00702e+08
1.2584e+10
6.50216e+10
9.29311e+08
3.91352e+11
2.64915e+09
7.87361e+12
2.60884e+08
2.20282e+08
1.57445e+08
3.13598e+09
4.37623e+10
7.65772e+10
3.02066e+11
5.29637e+11
2.8809e+12
1.77112e+09
2.30189e+08
1.76564e+09
4.3388e+09
2.36464e+08
2.22962e+11
1.81507e+11
4.5559e+11
6.84424e+10
1.70179e+11
1.25211e+12
1.74252e+11
2.30667e+10
1.7006e+08
1.12577e+11
1.67366e+11
3.1825e+11
2.84065e+10
8.04645e+10
1.72183e+11
4.29988e+10
2.88457e+11
7.34906e+10
1.79376e+08
2.15133e+10
9.79906e+11
1.63294e+12
8.45184e+11
8.76115e+07
1.06171e+12
4.6575e+11
1.02864e+11
4.01531e+09
1.9256e+08
1.71095e+11
1.66583e+08
2.18241e+12
3.38458e+10
1.6854e+08
2.25087e+10
9.24145e+10
4.11967e+09
8.98618e+11
5.14378e+10
1.92543e+11
4.19548e+12
4.97324e+09
1.29289e+10
1.35224e+11
6.80889e+10
3.42942e+09
8.13975e+10
4.77951e+08
5.09591e+09
2.84291e+08
2.53959e+11
6.08193e+08
7.96556e+08
1.71846e+11
5.83924e+08
5.69515e+11
1.35831e+08
1.54672e+10
5.90405e+08
1.45163e+11
8.19795e+09
1.46852e+09
2.33521e+08
1.14167e+08
7.19874e+08
6.05735e+11
2.04621e+11
4.43724e+08
2.73725e+13
4.24594e+08
5.14485e+10
2.23881e+09
9.02612e+10
4.36563e+11
6.01039e+11
5.32053e+12
3.37287e+13
2.90097e+10
5.39802e+07
5.97265e+07
4.15545e+08
6.70318e+10
2.41291e+11
2.41701e+12
4.79642e+09
1.77098e+11
7.15518e+10
3.89302e+09
5.73506e+10
1.45002e+11
1.08027e+11
1.4605e+13
7.24525e+11
2.39914e+10
4.77222e+11
1.09893e+12
5.70286e+08
1.19307e+11
6.30148e+11
1.2462e+12
2.39144e+12
1.10085e+11
1.35734e+10
7.20059e+13
7.10074e+10
2.01297e+11
2.12276e+10
1.16603e+12
7.45504e+11
5.81137e+08
2.85727e+08
1.22115e+10
2.07796e+10
4.76917e+11
1.84203e+10
1.19383e+09
3.0863e+09
3.93186e+12
2.70521e+11
3.16472e+10
3.50765e+12
3.99702e+12
4.60583e+12
1.41139e+13
2.21949e+08
7.89481e+10
9.21597e+11
1.18617e+12
5.07574e+10
1.21154e+11
9.91266e+09
8.48667e+08
4.88774e+11
9.2212e+11
2.60462e+11
5.36288e+11
1.01497e+10
6.88305e+12
2.73138e+13
5.55089e+12
4.32179e+06
2.59773e+08
1.03095e+10
6.65703e+10
5.17262e+10
3.815e+11
6.26951e+11
1.66224e+08
1.39479e+08
2.33202e+11
1.66223e+09
5.16938e+09
3.42543e+11
4.05204e+10
3.18402e+12
2.41325e+10
5.80638e+10
8.77008e+09
7.52348e+07
1.93841e+11
1.09817e+12
8.02307e+09
5.44246e+08
7.71947e+13
1.18504e+13
1.75292e+11
5.51075e+08
4.85993e+09
1.97567e+11
1.24514e+10
5.01445e+08
8.11588e+10
1.85016e+11
1.03512e+12
2.01559e+10
8.33586e+12
2.97038e+09
1.16981e+11
1.34006e+11
2.12569e+14
8.84939e+09
9.0961e+10
1.57658e+09
1.65806e+12
1.00466e+10
1.59985e+12
5.21035e+11
3.18855e+11
1.65183e+11
5.98279e+08
1.50541e+08
6.48984e+11
1.10706e+10
5.8294e+09
2.43197e+07
1.91164e+10
4.33697e+09
1.73655e+11
1.05453e+13
1.11675e+09
2.28406e+10
5.22977e+11
1.28034e+10
2.1767e+11
6.13833e+09
1.07166e+12
7.81986e+10
6.21903e+12
6.5866e+10
4.86084e+10
1.01826e+11
1.87004e+10
4.69841e+11
1.12771e+11
1.16352e+09
1.81177e+11
1.03374e+11
7.21926e+10
1.56329e+12
1.06548e+11
5.38534e+11
2.74432e+09
2.5926e+11
8.46526e+09
2.29732e+09
1.55289e+11
1.43253e+08
1.98677e+11
9.99448e+11
4.71652e+11
8.94209e+11
3.14775e+12
1.03665e+09
3.73418e+11
4.38459e+08
3.48318e+11
6.33539e+09
4.62074e+11
3.37757e+12
3.07649e+12
2.96103e+08
1.02647e+11
2.50233e+12
2.42375e+08
6.64042e+10
3.56105e+10
2.76261e+10
7.09868e+10
2.03274e+08
1.30041e+10
9.69698e+09
6.40459e+11
1.381e+11
1.2851e+11
1.46935e+12
1.14519e+11
1.38688e+09
1.039e+11
5.65987e+08
7.26319e+10
5.10209e+12
1.11976e+11
1.09227e+13
2.02746e+12
2.42029e+09
2.75451e+10
2.52198e+09
4.88646e+12
3.15258e+08
6.11561e+08
7.16812e+10
9.39531e+09
2.66191e+12
1.29217e+08
5.50774e+10
1.14725e+11
2.34498e+13
2.3157e+12
1.18335e+11
9.8777e+11
2.01827e+08
5.60706e+08
3.64409e+12
5.61007e+11
6.67615e+10
8.79508e+11
1.75111e+08
2.81668e+08
4.81881e+08
1.83186e+11
9.38004e+10
1.12055e+09
1.63715e+12
1.17965e+09
1.19651e+12
2.64358e+08
1.21985e+09
1.3047e+09
2.07247e+08
5.19172e+14
5.04116e+14
5.30006e+08
5.43954e+11
4.24104e+09
4.71924e+10
3.86525e+12
1.14963e+10
1.39024e+11
4.62497e+10
6.87988e+10
8.30632e+09
2.3556e+09
1.89971e+08
7.85656e+11
7.0599e+08
1.64822e+08
9.10959e+10
1.14455e+09
4.21391e+08
1.10272e+11
1.03083e+08
1.59434e+12
1.95394e+09
3.05725e+13
1.63589e+11
2.42796e+09
3.40983e+12
2.64686e+12
5.84332e+11
2.97208e+09
6.26557e+11
5.57212e+11
4.32519e+10
8.87021e+10
1.85384e+07
2.11225e+12
5.69593e+07
2.80309e+10
6.20504e+11
1.19955e+12
2.74707e+09
2.76419e+12
7.10001e+11
1.45118e+13
1.94646e+12
3.54851e+08
1.19423e+08
5.62797e+11
4.38387e+09
7.52493e+11
2.25746e+11
5.8685e+11
2.13109e+11
6.60149e+11
1.41221e+08
2.03215e+08
2.39131e+10
5.11402e+11
9.83829e+11
6.08481e+10
2.35096e+10
7.57389e+11
4.90723e+09
2.0765e+11
1.98474e+11
1.56896e+09
3.91302e+11
6.6904e+09
1.77846e+12
1.60451e+11
9.00015e+10
6.70515e+11
8.91823e+10
4.10968e+11
3.78732e+09
5.87436e+08
5.06983e+09
3.24954e+11
4.10675e+10
4.87924e+08
1.09418e+11
7.44686e+12
6.41017e+12
1.32837e+08
6.42051e+10
4.74099e+11
1.39431e+10
8.0703e+10
2.1714e+12
4.09309e+11
9.31469e+11
1.20852e+11
8.85323e+07
5.54417e+11
2.60939e+11
1.70024e+12
1.70435e+09
1.09042e+13
2.16176e+12
4.04271e+08
9.33513e+07
4.98808e+09
1.3268e+11
2.63527e+12
8.89587e+10
4.77082e+11
1.66732e+11
9.50421e+09
2.50334e+10
1.68796e+11
2.26728e+10
2.40994e+11
4.89709e+09
8.41101e+10
1.73686e+11
6.0935e+11
3.739e+11
1.66205e+11
1.94608e+12
7.22828e+08
4.39591e+10
6.00763e+11
1.18834e+11
9.35785e+10
3.40896e+08
4.39042e+09
6.97603e+10
2.47714e+08
2.18907e+08
9.18037e+09
1.41015e+12
6.22474e+11
2.14093e+08
8.96964e+10
4.34942e+08
7.10068e+10
4.69038e+10
4.14203e+11
2.49618e+11
5.98196e+09
1.95275e+08
9.3228e+07
2.32525e+12
1.30739e+11
1.50323e+09
4.90337e+09
5.18219e+11
6.66175e+09
1.50664e+12
2.1689e+12
8.01782e+07
1.09359e+12
1.20548e+13
2.28259e+08
2.18337e+10
1.17812e+12
5.15932e+10
5.99834e+08
6.88094e+07
7.11375e+07
7.21041e+07
8.97266e+07
8.29696e+07
4.62225e+07
8.10007e+07
8.89483e+07
7.99695e+07
5.19799e+10
1.52225e+11
1.3297e+09
1.36469e+08
4.86437e+11
2.42467e+08
8.76293e+06
7.28907e+08
1.83559e+08
4.86481e+10
1.52553e+08
5.6901e+11
3.09691e+08
9.04945e+10
2.7025e+08
6.83968e+10
1.21535e+11
1.41567e+08
2.07442e+12
4.08762e+09
4.61179e+10
2.00228e+11
1.24278e+11
3.9137e+11
3.50897e+10
3.8259e+10
4.73355e+07
2.40762e+11
3.69715e+09
7.67122e+11
1.41206e+11
3.11291e+11
3.64292e+12
5.74634e+08
7.46553e+08
4.79532e+08
3.5127e+08
2.63313e+08
5.61491e+08
6.80747e+10
2.66338e+09
1.76893e+08
1.40928e+12
2.16857e+11
8.37205e+12
8.25361e+09
7.65139e+11
7.5867e+12
9.95423e+08
8.37264e+12
1.17396e+11
6.48496e+10
7.09969e+07
2.70417e+11
2.14589e+08
5.73868e+11
3.48216e+12
1.03293e+09
9.51525e+09
1.42298e+09
2.89646e+08
6.72999e+12
1.86527e+12
1.55833e+11
6.18166e+10
6.96151e+11
1.33327e+09
1.79116e+08
9.15564e+11
6.26694e+08
3.06488e+11
6.9521e+10
3.45264e+11
1.48554e+11
2.50887e+12
2.12595e+09
1.16318e+11
6.85573e+10
1.55849e+09
4.12356e+11
8.84089e+10
1.35619e+12
8.56222e+12
6.04186e+11
8.18061e+11
8.12482e+09
1.73925e+08
4.82062e+10
1.29398e+12
1.18493e+11
1.25361e+11
7.39399e+08
2.47508e+10
2.06394e+11
7.78405e+07
2.44055e+08
3.51783e+10
4.86765e+11
1.71826e+11
5.64404e+09
5.28416e+11
9.06995e+08
1.05596e+10
2.14274e+11
1.04127e+12
6.89279e+12
5.34213e+11
2.31751e+08
6.5967e+12
1.17568e+11
1.45368e+11
4.8883e+11
4.39983e+12
6.29191e+09
4.65804e+09
6.1538e+09
2.74328e+09
3.41841e+10
5.14595e+10
1.39273e+09
2.28456e+08
1.23426e+12
8.12676e+11
3.82843e+11
3.08604e+11
3.19865e+11
8.98143e+09
1.11705e+11
2.83432e+08
7.69169e+10
2.53153e+12
9.0505e+10
3.77924e+11
3.22391e+09
1.15913e+11
6.79228e+10
8.09807e+10
1.15018e+11
5.7131e+11
2.46599e+08
7.8838e+09
9.79054e+09
1.9202e+08
8.20277e+11
2.96073e+11
2.47187e+12
5.07789e+11
1.13107e+09
5.46904e+08
1.74247e+12
1.8185e+10
9.65948e+10
7.44645e+09
2.37351e+08
3.24923e+10
5.99145e+09
5.10495e+11
5.3333e+10
7.24993e+11
6.90731e+10
5.02152e+09
5.9727e+09
1.3361e+11
2.00814e+12
1.66328e+11
4.5482e+10
5.99198e+08
3.30077e+11
5.67647e+11
4.16864e+11
6.79124e+09
2.48394e+11
9.54541e+10
5.39659e+10
1.0103e+11
4.84989e+12
6.65116e+10
7.41231e+08
3.50857e+12
4.83164e+12
5.98807e+10
3.84953e+09
8.2864e+11
2.05019e+11
1.70419e+11
1.75278e+12
5.28398e+11
3.54783e+11
3.81213e+08
9.2882e+10
1.21866e+09
7.4372e+11
2.28027e+08
1.51303e+11
1.19974e+11
8.74657e+10
8.83925e+10
3.35072e+11
4.20435e+09
1.49835e+11
3.81336e+12
8.32164e+10
5.22392e+11
4.95027e+10
6.9438e+11
5.26414e+11
2.47915e+09
2.82456e+10
1.48537e+10
1.25267e+11
1.32675e+08
3.74799e+08
1.09011e+09
8.6308e+09
1.5513e+11
4.73071e+11
2.49906e+08
9.19819e+08
1.15304e+11
8.19174e+09
2.27529e+08
2.34136e+11
4.15217e+09
4.10532e+09
6.00224e+11
1.84419e+12
6.3534e+10
3.45932e+11
4.15776e+11
3.16075e+12
9.80691e+10
4.69394e+11
4.21811e+10
6.29507e+10
5.24159e+11
4.10415e+12
1.93872e+11
1.16454e+10
1.75365e+11
7.43811e+11
1.44714e+11
5.49336e+11
4.65889e+11
9.771e+10
2.12226e+08
2.89983e+08
8.18053e+08
6.5673e+11
1.56873e+09
2.18214e+08
2.48446e+08
7.54149e+12
5.90842e+12
6.58322e+09
1.26147e+12
7.92598e+10
5.81544e+08
1.98164e+11
1.00788e+11
6.96296e+10
3.63895e+12
7.12627e+09
1.0494e+11
3.19158e+08
1.19484e+10
8.65617e+11
6.84394e+10
1.10724e+12
5.07909e+12
5.03062e+10
2.40767e+08
4.03071e+08
1.71995e+09
5.43691e+11
3.83807e+08
1.66726e+09
4.62156e+09
6.65035e+07
7.42482e+11
5.73771e+08
6.26028e+11
6.46269e+10
2.60899e+11
2.83978e+11
3.97893e+10
3.08613e+08
5.98179e+10
1.22706e+11
2.71393e+12
1.92114e+11
3.02551e+08
2.02626e+11
6.52779e+10
2.16289e+11
8.22171e+08
8.32427e+10
8.96181e+08
2.57695e+08
3.72033e+12
5.7939e+11
4.76984e+10
1.68615e+09
4.41091e+10
4.77549e+10
3.68965e+10
1.27207e+11
5.71125e+11
1.59761e+08
1.12401e+11
5.17128e+11
8.83645e+09
1.97103e+12
3.89485e+10
5.53771e+09
1.38268e+12
5.58694e+12
8.81764e+10
5.65454e+09
2.87063e+08
1.86279e+08
3.11778e+09
1.46497e+09
4.52466e+10
6.06864e+10
4.60435e+08
7.30745e+10
1.96936e+08
2.79745e+08
3.4438e+09
1.36346e+11
3.18926e+08
3.40732e+10
2.41448e+11
2.48408e+08
2.10897e+08
5.3477e+10
9.3388e+08
2.93264e+08
2.39619e+12
5.59743e+09
5.49002e+08
5.80757e+12
7.05426e+10
2.14806e+11
1.2937e+12
8.4621e+12
3.24804e+09
1.42716e+11
5.63124e+11
5.40683e+12
1.0432e+11
2.97797e+12
2.10452e+13
5.0769e+09
1.32338e+13
9.82053e+07
6.3891e+10
1.4095e+08
3.78748e+08
1.71987e+09
2.65725e+11
2.32775e+11
5.74982e+09
6.44836e+10
2.51412e+13
4.32267e+09
9.0578e+07
8.71513e+08
1.01113e+10
1.90046e+10
4.48577e+07
3.95129e+09
6.94948e+08
2.09348e+08
3.69344e+11
1.74097e+08
9.95541e+11
1.11686e+12
6.83269e+11
2.06736e+08
8.77934e+11
1.34383e+12
4.828e+11
3.05101e+12
4.44293e+10
7.26537e+10
3.62001e+11
2.15496e+11
2.83415e+08
1.016e+11
1.18104e+11
6.27538e+07
1.1472e+09
7.77978e+08
1.63323e+08
1.98614e+09
2.13909e+08
4.5212e+10
2.66319e+12
2.7561e+10
2.26561e+10
6.54816e+09
1.42272e+12
1.54153e+11
4.74419e+10
1.11973e+12
3.16957e+10
4.33634e+09
2.55898e+08
1.65709e+10
1.45856e+10
2.81186e+11
2.32424e+09
3.59265e+12
3.58844e+13
2.77161e+12
1.685e+08
3.32849e+11
2.01971e+08
1.62918e+08
6.96727e+10
6.79159e+11
7.62294e+08
6.8892e+10
1.54022e+11
7.7013e+09
3.56551e+12
3.61491e+08
1.57013e+11
1.72823e+08
2.23149e+13
6.55181e+09
1.24282e+11
1.85752e+08
2.04154e+11
3.80455e+10
1.31111e+10
3.77548e+12
1.57767e+13
2.62117e+07
3.25707e+12
2.18753e+08
1.41847e+10
2.90368e+08
6.70067e+10
4.73667e+10
1.7211e+10
1.14094e+09
2.33968e+12
9.4053e+09
1.30082e+11
5.29029e+11
2.44506e+10
1.30053e+09
2.28544e+10
7.75449e+11
3.86149e+10
1.31402e+12
2.4588e+09
1.11726e+11
8.95649e+11
2.98158e+08
6.57198e+10
3.67404e+09
1.12558e+11
9.7563e+11
8.01431e+11
1.58265e+08
8.64163e+11
2.25988e+08
8.04871e+09
3.28744e+12
7.825e+10
1.23323e+11
6.43672e+11
2.18816e+11
9.38276e+09
1.01014e+11
1.39786e+12
3.51981e+11
2.77353e+08
3.53875e+09
3.7391e+09
5.08622e+10
3.58701e+11
5.60822e+08
2.36451e+10
1.06861e+11
2.83876e+11
6.73379e+10
5.3399e+08
3.92833e+07
5.3547e+09
1.72923e+08
1.93649e+11
5.28555e+11
8.11787e+09
6.1735e+10
2.70733e+12
2.35099e+08
5.36212e+11
6.39079e+12
7.38311e+11
9.17306e+09
4.15896e+10
4.12443e+09
1.84022e+11
6.60409e+11
6.76163e+11
2.55698e+08
8.69712e+08
4.28598e+09
6.67259e+11
1.26412e+09
2.32106e+09
5.50227e+08
3.8841e+12
5.48474e+11
1.613e+11
4.44843e+09
3.32588e+10
3.50313e+08
2.2035e+09
2.23791e+11
2.14789e+08
5.12193e+09
2.50653e+08
1.26432e+10
2.13862e+09
1.09618e+11
2.04611e+11
1.50529e+11
3.23152e+10
2.22974e+10
7.2264e+10
2.59406e+08
5.48077e+09
2.61094e+11
2.30642e+11
1.99056e+10
2.22609e+08
1.93225e+11
6.80402e+11
1.85981e+08
7.19254e+11
7.89091e+13
7.09947e+11
7.02087e+10
9.50464e+11
2.24289e+12
4.54052e+10
9.65962e+07
5.3258e+11
2.92932e+09
2.50797e+08
1.8245e+08
1.56739e+08
1.01967e+12
6.16943e+11
8.02261e+11
3.50426e+10
3.15323e+08
3.17286e+08
2.61424e+10
9.09896e+08
2.42933e+08
1.13117e+11
2.21962e+11
4.43978e+11
9.30416e+11
1.49278e+11
2.57113e+08
6.52788e+07
6.11142e+11
3.13466e+10
2.54778e+09
1.64491e+08
1.51571e+08
4.82871e+10
4.05281e+11
4.59103e+11
7.16897e+09
1.86483e+10
3.55909e+11
1.7073e+11
2.07107e+10
2.36387e+12
1.67112e+08
4.57569e+09
5.41032e+11
8.96525e+12
5.45305e+11
5.33933e+11
1.01405e+11
5.5014e+11
1.55957e+08
1.34318e+08
2.21592e+08
2.44991e+10
1.27384e+10
4.39596e+12
5.06759e+10
8.56213e+07
5.81376e+08
1.17685e+11
1.98692e+10
1.24249e+08
1.95798e+11
3.46917e+10
6.69322e+10
1.67543e+09