/*--------------------------------*- C++ -*----------------------------------*\
  =========                 |
  \\      /  F ield         | OpenFOAM: The Open Source CFD Toolbox
   \\    /   O peration     | Website:  https://openfoam.org
    \\  /    A nd           | Version:  8
     \\/     M anipulation  |
\*---------------------------------------------------------------------------*/
FoamFile
{
    version     2.0;
    format      ascii;
    class       volScalarField;
    location    "9e-05";
    object      k;
}
// * * * * * * * * * * * * * * * * * * * * * * * * * * * * * * * * * * * * * //

dimensions      [0 2 -2 0 0 0 0];

internalField   nonuniform List<scalar> 
23640
(
3142.2
11822.1
63.7142
6.78236e+06
13722.7
99745.9
67561.6
15141
76004.7
54780.7
589521
83436.1
3955.02
15823.2
32809.7
28082.7
1105.43
231427
349051
72638.5
388362
64.1329
388142
185784
16680.4
93067.8
140240
78422.1
1111.79
4979.56
2253.67
1.20054e+07
381067
73496.3
70031.8
25395.3
1169.67
1552.02
436.227
375544
95481.5
69569.7
23936.4
1094.89
1.00698e+07
160622
1914.45
101072
55220.8
13049.8
1.20071e+07
281142
25743.5
3070.2
6.94414e+06
7300.03
132204
11682.1
14899.3
9.72681e+06
2181.66
155937
1.68851e+06
295081
14087.8
291563
2342.12
15870.9
128782
21426.5
638132
74245.4
256861
1526.67
28169.4
1.19776e+07
911.183
3770.5
352103
1.47357e+06
170761
99887.6
24246.9
25433.5
13558.2
28187.5
276951
133728
168999
33239.9
18132.2
11289.9
62058
291013
295054
4151.28
301268
10568.5
8967.11
54954
77574.8
3111.05
147003
2184.08
67653.4
1448.1
2.87446e+06
3332.23
84232.3
9496.61
1918.28
263670
66027.1
99171.6
83256.7
1354.89
29609.9
1860.4
2865.83
5233.37
78381.8
1.19428e+07
10216.4
1.19788e+07
107593
245400
1.20085e+07
107272
101009
114647
87224.7
82578
3927.03
123096
2633
81719.3
475449
16178.7
570180
308374
8758.56
126665
246001
600399
197294
9124.98
663283
473637
21577.3
127384
12321.1
26657.2
21547.3
3.27423e+06
86759.5
1485.68
69710.5
75737.3
2031.75
137940
25389.7
31964.8
25889.1
8291.38
991.368
859.891
1.32139e+06
147062
3.20973e+06
81195.2
104499
81726.7
27566
87070.6
2.10716e+06
2.02879e+06
112729
100884
1.52781e+06
6759.45
1.00006e+07
7789.98
16527.8
78084.9
979.644
217097
107061
66128.5
9.29684e+06
80291.6
132144
570491
1.18905e+07
20301.7
1522.04
286383
67437.5
74039
12379.5
130086
417824
489.809
1751.67
64489.1
353320
13182.2
9134.39
381406
95334.7
1.49676e+06
14145.3
16483.7
3998.71
13454.8
13076.2
13199.1
110600
72247.3
9319.52
523.601
4238.68
563851
418768
83815.2
201532
67133.5
97034.3
1.19668e+07
639.269
17509.4
3274.63
1877.63
70121.2
16437
75675.7
99288.7
645633
13959.1
20860.8
169362
80865.9
47674.6
93641.2
58089.8
6.0267e+06
2584.61
6332.97
13199.2
1.8051e+06
202715
1.00452e+07
127129
1860.27
2.12705e+06
12647.3
390338
177.208
2484.89
4.40683e+06
3.8514e+06
8.9855e+06
1905.29
78170.9
83916
725.72
25270.3
123513
8994.08
12062.8
271069
62753
794.449
41046
9.44917e+06
102088
73850.8
943.387
1.19435e+07
309548
88654.8
232102
577.201
213421
665081
47721.5
158661
23466.5
45274.3
65966.4
650142
5176.09
1363.13
12696.3
10479.5
557905
24239.5
116834
1529
90681.2
2308.44
149986
297872
1.19665e+07
10964.2
446510
817.289
87313.3
142537
8.15968e+06
238143
2341.57
98516.6
2.14343e+06
322348
403490
122098
66156.7
100.15
298816
57172.5
3442.19
74208.1
69992.3
77556.1
2570.72
94559.6
4.57087e+06
12193.5
4186.81
1.20077e+07
215099
14817.3
78438.4
93320.5
18026.9
10571.4
10482.2
63716.7
25660.9
91132.9
19068.8
208711
85634
1.19481e+07
491796
229289
147544
85970.9
67178.9
71365.9
3.75447e+06
88610.7
2888.15
1833.16
69384.5
891.793
12648.5
1994.18
1.6298e+06
578754
105903
460857
304540
2111.47
13398.4
655.702
532.894
61181.3
357707
5329.72
117409
108143
2279.33
408783
106867
2881.85
1.07353e+07
336.173
11758.1
122940
264865
111421
11039.9
218800
10685.9
1864.61
50528.7
824.286
325047
1064.54
267916
75395.4
2720.85
29412.2
72427.7
241471
1.19242e+07
1857.94
1766.51
143553
3191.88
703921
112112
813.854
3801.74
96920.5
6.72864e+06
1153.35
42371.8
2437.79
77037.2
1.75697e+06
2.73021e+06
140438
683914
101176
155864
4418.32
156090
71057.4
4.36096e+06
267282
90654.3
68039.1
66565.2
969.604
1.19639e+07
9312.33
462656
33187.5
876.681
1.07684e+07
1.36491e+06
365511
100301
509044
122594
28276.3
152382
1.00306e+07
94192.2
1.56621e+06
15159.6
59005.5
188551
4210.79
147008
59398.3
451875
61351.3
1.20108e+07
2453.2
2.29107e+06
88491.6
206477
2162.03
64007.9
86024.8
4.10586e+06
47064.2
159474
43558.2
68129.2
1.20108e+07
38000.1
5340.71
38879.6
2251
71116.5
136612
83300.5
4781.52
9.16999e+06
381.074
2485.96
161060
38765.6
1.20107e+07
96595.5
1.18451e+07
9444.44
946.122
71040.5
60228
41402
87162.6
297226
654.339
2444.88
1800.21
121505
1.16385e+07
3657.6
180606
12113.6
96954.2
63392.7
210837
90215.3
2006.81
4181.81
1.15387e+06
947.783
9833.78
4261.43
12603.4
72571.5
1864.37
1364.48
3973.99
162877
3260.24
38930.5
31830.2
352849
79778.2
67395
1318.76
52920.3
746782
66008.7
256655
1.20108e+07
21520.7
52458.1
65535.6
315990
161522
269895
15591.8
95359.1
214647
109198
7551.52
11218.6
4443.86
29158.3
76588.1
3244.03
129670
22105.7
4340.66
11077.2
91292
1575.74
30267.1
23099.2
196064
13618.7
14292.3
160917
15842.5
8660.85
541.644
149281
4219.42
15697.5
41050.1
481113
2.19854e+06
3783.35
462638
10246.9
132177
315965
374445
24846.7
364460
119135
39046.9
1.20108e+07
14782.5
12580.6
1555.88
1806.75
355162
12236.2
30385.7
65495.7
1605.29
1.08719e+07
26696
1951.08
158894
326292
171045
25368.3
65125.8
93263
369755
1.8343e+06
19386.9
101520
45542
13315.6
300571
71488.7
123659
4870.76
69430.1
684614
459256
4.61509e+06
103430
5362.53
20920.4
73515.9
2913.44
78607.7
308374
4711.78
13255.2
78883.3
8536.47
104447
73284.5
12690.8
10594.2
1569.34
1.19722e+07
353633
114378
99317.6
1.912e+06
19790.3
287672
145952
414214
4207.71
15840.1
767.134
5142.95
2182.83
6605.09
595.476
8.13386e+06
4164.53
148041
1888.89
27417.3
49956.9
7477.33
453261
3582.77
10644.3
27893.5
408568
121485
1789
84067.4
56499.4
1.19427e+07
181949
15496.1
71528.2
9.07715e+06
90295.9
300793
4292.35
4701.27
70614.1
152878
1307.7
95631
11.3798
12.6347
4519.37
1.19013e+07
186953
41098
1.19571e+07
8924.27
96628.7
51834.1
314162
1223.84
4456.76
15649.1
1955.59
1.19474e+06
1.03881e+07
14997.2
15357.9
656.103
76253.8
1996.99
7.15011e+06
79735
168753
1.19495e+07
1117.04
8694.15
186044
16474.2
251909
982.727
47625.4
120797
290158
66926
1.20098e+07
311208
71225.3
165674
2166.71
96666.1
299632
64302.9
532301
75018.9
293155
242209
92683.1
647.103
72.4602
21918.1
81418.5
99984
354801
11221.3
71845.6
158215
63264.9
490.349
85261.2
27.5062
951.506
2018.59
71336.4
5.37871e+06
43523.4
2013.18
1.10916e+06
354930
1163.94
67826.2
999.575
98487
1.20783e+06
43758.5
33487.9
77108.6
1.26041e+06
97169.3
1992.1
219406
2088.22
103038
1776.62
4250.7
225970
519.116
16761.2
4261.96
32234.5
1.20107e+07
122168
3522.15
273441
474185
1750.88
14264.4
204627
7596.65
6.29698e+06
6329.05
742942
71542.6
269895
84570
49222.6
67061
156287
66006.4
166607
4202.7
2.48728e+06
11131.7
268375
14464.6
65743.3
1.19856e+07
139.577
16643.7
10253.3
1.16232e+07
119172
1494.13
77847.9
66309.2
418.608
31356.3
207923
4239.14
948.107
287363
6876.41
1.26418e+06
1943.31
358243
30023.4
88439.9
12686
1869.53
63590.5
8.97121e+06
97780.3
332185
759413
4188.84
35683.7
188908
15859
6.65254e+06
24970.2
165560
54527.8
26807.2
31114
83822.3
13704.6
633.088
36493.5
79418.5
4058.61
454029
88224.9
1976.32
63760
206950
4325.25
120228
2048.7
307635
66210.5
16715.4
74678.7
191950
291.766
4440.63
304218
140602
539068
112518
1149.1
1914.8
3.39663e+06
4307.87
408367
14352.9
7011.92
3665.14
46887
5740.34
345625
1.20108e+07
5213.34
90379
39091
84406.4
75956.2
2692.09
4798.26
1.16701e+06
155687
3645.11
528879
1899.91
1.11536e+07
20019
102884
524314
1.48134e+06
490209
1.20108e+07
1350.49
4.19292e+06
170612
2200.03
1005.01
65508.1
6053.38
300532
2532.76
97851.9
156026
1.41557e+06
86936.5
6.91156e+06
12365.4
178.41
121292
85632.7
14442.5
166046
83957.7
7845.73
24784.2
593.841
205422
403206
11404.6
32558.2
2442.17
214389
116.204
93665.9
23758.9
23847.9
1449.22
124478
1089.7
59026.8
81259.5
7.74151e+06
4141.64
166737
3.1265e+06
359513
924867
37176.6
206536
5410
334616
779.961
24731.9
1288.56
12851
37783.9
1.19736e+07
304702
284064
82.7855
71837.1
9.43439e+06
104669
21954.5
6973.48
8230.49
1.38367e+06
21861
521.14
30124.2
86787.8
955601
84051.9
613431
197112
2447.46
1936.12
120310
557715
1555.99
14761.9
18799.2
6013.82
2.16645e+06
252.679
110967
2299.36
71222.8
14434.3
344799
4125.75
87593.2
27638.8
139859
9.45897e+06
14017.6
94700.9
462342
2566.83
569162
17769.3
17271.6
4101.64
82745.9
16886.4
116952
1.03268e+06
11542.1
12744.4
83444.5
143270
93142.9
265097
459.002
4322.29
335540
351343
6218.71
6.3294e+06
21977.4
81405.4
541915
10077.8
9.64649e+06
13627.8
12393.6
54958.2
150285
4153.23
269117
81039.4
24082.1
152824
106655
3037.79
11505.5
2815.57
668.601
4339.03
1687.53
59189.9
201853
107606
10550.4
64953.3
70656.3
647.415
335706
1.18476e+07
580.779
273853
84379.4
1223.95
52100.2
4.75543e+06
91125.8
116943
317339
83529
27046.8
71004.5
2154.27
5450.95
4282.44
35628.9
6463.27
2090.06
7293.3
633168
14609.4
57531.1
2271.29
147759
126958
162329
1.12848e+07
70971.4
39436.4
84294.7
1.05634e+07
236136
269884
4708.21
268848
18628.3
836.229
66758.5
15210.5
189610
2153.82
1.96086e+06
96010.7
4038.92
463.937
133748
210156
32036.6
1.30794e+06
1018.68
55558.2
156818
147850
25647.1
119934
2161.02
17607.2
272013
4023.94
29179.3
67249.6
187155
2140.39
27949.5
70345.4
365428
913416
93577.3
76778.4
19710.1
5299.85
77115.1
98064.7
6633.4
4414.19
1702.14
14028.9
95200.4
11764.6
446.803
301.797
4.83013e+06
1005.91
46134.9
382703
1904.77
8160.63
168635
200502
10512.2
2433.53
2540.29
19079.3
9509.16
138303
221977
7574.74
86323.7
1.40214e+06
3694.9
3383.72
1492.32
1228.12
1.19811e+07
4278.36
71400.3
4266.9
1.03669e+07
287073
24707.5
24617.7
2.27946e+06
1.20108e+07
3046.08
608.147
22368.5
6709.27
1222.58
311379
18283.2
997.883
586736
22306.6
107907
4.67566e+06
5.81506e+06
849.566
178172
84394.9
1962.47
8018.61
10268
72561.7
2249.16
204460
16882.8
85637.6
448728
78515
31975.1
253999
1921.01
83037.7
81523.6
265468
168123
71068.4
161127
109278
31522.4
79940
10707.1
45180
53570
4206.24
290300
144178
18134.1
2779.15
329312
355705
1324.53
1062.66
361247
153399
1248.64
198660
4379.09
217578
4234.21
6544.87
23000.5
27845.1
127695
1041.63
1.20108e+07
34210
705278
20660.5
126927
726107
77025.6
2239.54
87887.7
42854.3
239831
14776.1
617870
647.962
78158
44874.7
106209
5628.23
133883
2365.36
225855
4309.62
387.17
25572.9
42179.4
4351.34
252000
539449
115331
1.43226e+06
218382
9.62269e+06
80690
18841.9
16239.6
319926
4900.44
43.2211
95334.6
149036
1826.05
507.514
13199.4
85352.3
71675.6
18101.4
2.98311e+06
20275.7
672.239
9122.1
219162
5492.61
7919.88
1.19582e+07
13665.8
73421.3
3222.2
29936.6
97661.5
1941.8
3698.58
2004.11
167830
782615
58661.7
213637
164082
90426.9
4355.04
90778.1
62.5759
1409.89
5044.58
446731
930.896
2875.35
98.8577
9110.06
785048
190850
726056
109734
4179.46
6883.81
264973
93909.7
515776
17270.7
4405.79
1381.66
2645.12
1256.59
137282
105643
35045.6
55078.1
4283.22
17570.9
118338
333370
14111.8
1627.12
9194.5
124538
1855.15
17264.5
2189.54
2252.08
6615.8
1.20108e+07
66244.1
18582.3
69552.5
329312
550078
727796
5797.02
43360.2
85168.1
413708
83606.3
36528.5
1623.89
68735.6
776.704
2317.44
79670.1
960.433
80469.5
1362.83
448589
90678.5
83448.9
20361
139653
5708.27
107261
2.95745e+06
5930.49
144074
142720
1.44632e+06
1.55961e+06
2149.14
764.091
4347.27
386.126
1986.05
66558.5
84563.2
523560
63246.7
2.28156e+06
15255.2
73021.2
1943.49
72590.9
71061.2
1.20098e+07
616137
19367.2
127147
86529.1
12015.5
220438
3544.07
84197.2
78820.7
516.173
1.20097e+07
12769.6
5.2864e+06
1901.23
1641.18
1013.44
14187.7
90781
104646
25926
337416
822500
147.671
875.082
8190.89
5379.71
1930.3
154834
58085.6
137904
68876.5
131632
914312
138880
90066.6
1496.04
81584
43603.5
119711
122414
85124.3
142604
67229.5
167786
123720
731.936
1546.04
171297
109409
187921
844.719
742893
291625
28194.1
18853.7
1580.73
21915.9
629.207
293525
79142.5
1436.51
113706
73596.4
21514.8
601425
75746.1
126292
2.26105e+06
4804.57
3529.11
56668.1
70166.8
2998.33
86133.5
4113.81
11163.7
2245.83
21835.9
3791.52
77.6051
10303.5
3655.79
356620
1147.83
25276.3
4435.25
59434.2
2415.97
3673.07
732.056
528.485
4133.86
413417
3369.33
3902.93
8.89933e+06
3800.34
70242.2
10346.3
75837.8
272841
5101.75
9.87819e+06
8.62389e+06
120847
113.389
1.20108e+07
3542.2
82348.8
96355.1
971211
14848.8
47949.2
83491.7
18129.2
125489
10981.9
86049
8.16497e+06
205441
96208.4
272506
146032
918.999
67523.8
226462
904409
1.59707e+06
25626.2
87194.5
6.86171e+06
71949
50433.4
96364.4
137893
455577
3639.62
2112.83
83110.1
96695.8
306470
97398.4
5602.3
14143.5
1.18476e+06
116131
86253
2.64675e+06
1.04939e+07
2.13409e+06
1.01239e+07
937.048
85477.1
180122
193699
71709.1
84292.2
72282.4
4237.57
313184
6104.54
118914
361943
72601.4
6.01262e+06
6.39787e+06
2.0355e+06
1.20108e+07
1992.81
21520.8
125965
70882.1
202313
178413
994.186
582.123
82602.6
7787.47
11169.9
105475
87350.2
1.82607e+06
30321.3
123246
47805.2
683.647
77267
795787
50745.8
2446.68
7.30148e+06
917448
76730.2
4481.96
15359.2
78661.3
33619.7
2259.45
80564.2
8879.01
513171
1.20077e+07
5.24155e+06
2233.42
12389.4
16926.1
5.05307e+06
2568.63
76611
7402.24
107674
44900.7
570141
317297
77848.4
105589
3748.32
134.474
295036
24867.3
11982.7
1.20108e+07
95933.2
3886.38
54913.5
6.54209e+06
5202.65
81679.9
319852
33054.5
153078
12333.2
151696
85114.5
4.86443e+06
130085
70807.5
35638.4
27834.1
302013
15391.6
6071.91
53773
103566
81833.4
1.15783e+06
105618
256789
12681.4
51807.9
26595.2
10360.7
134100
1213.62
50436.9
1.19003e+07
292196
36587
684224
2012.72
119147
3795.71
210284
12322
13431.6
2.15604e+06
1.84319e+06
2316.94
65159.2
1.89091e+06
963.843
79540.4
66489.3
113049
120100
1192.62
78085.7
20120.3
304937
63942.4
112826
968405
105905
390.616
65679.7
4460.64
147056
1.18829e+07
95439.9
2.44052e+06
1.18198e+07
10951.1
93848.4
10938.4
3.84933e+06
1456.04
4353.15
76608
50282.2
2.02624e+06
1320.18
100112
20504.1
1.81887e+06
957115
76441.9
645371
1535.96
4469.58
1.19623e+06
258313
78668.1
1.19148e+07
834.298
746.289
2471.57
141617
148637
4918.26
104083
5285.54
1.19129e+07
2243.32
4255.35
5788.98
868.674
1.19585e+07
1.17275e+07
4421.22
289391
20443.2
150193
972102
29575.3
121190
71601.2
137173
53630.2
10683.8
697.383
195197
4161.08
1467.11
95521.6
5286.69
3770.96
20433.4
827.829
1.17511e+06
8810.93
1.02606e+07
91343.2
11362.5
227907
832264
368806
13640.3
366936
357831
66511.5
167786
1.20108e+07
371034
297.231
92752.8
360665
185316
13299.1
2.10714e+06
394297
3.36193e+06
1.27604e+06
1629.54
714.51
11259.4
9297.45
22954.7
134688
413127
11430.5
470980
1281.75
851.434
29407.8
311827
505505
114820
95915.5
499457
13194.8
10654.5
72857
4261.16
1.19683e+07
25622.2
745465
136721
74599.7
199779
76825.5
28362.7
20376.1
1.20108e+07
9434.76
220206
80161.9
2208.27
36933.4
7.1265e+06
5.37965e+06
1108
91550.8
305108
14866.1
88359.5
454419
265723
155865
67964.4
768.42
346898
181625
1.13649e+06
7946.19
7.01411e+06
85515.3
3655.67
160.242
12876.3
120050
1.48892e+06
82853.7
271945
76279.4
40474.5
27778
140747
98534.1
38779.7
14713.8
145578
17191.8
415621
43942
95912.5
415651
3961.76
66688.7
250892
105345
151176
2865.61
20040.9
68128.8
1802.2
2079.31
10698.5
1.17177e+07
19887.2
1993.46
166131
3812
116105
71633.4
268752
160169
13461.5
1405.36
826.48
1.14292e+07
79110.5
7107.61
14878.7
342431
45888.8
1.00242e+06
1.27472e+06
717.372
731764
2.61277e+06
1791.69
112636
365376
94573.9
4416.84
591.845
549.416
413.354
715.787
536.802
259.832
693.723
766.232
688.97
75548
125114
4872.29
1372.64
312666
1902.39
1.20108e+07
3623.39
1474.45
75524.7
526.349
389519
2602.11
72275.2
2046.64
72891.9
136071
1277.97
316051
13928.5
76074.3
53668.2
71789.2
167464
66161.3
65949.5
204.047
28232.3
17924
214308
76697.2
110761
2.2741e+06
4443.84
4151.32
4230.92
1098.06
2405.58
4488.68
113199
8026.31
1458.25
763470
5829.51
1.176e+07
17320.8
181321
1.66718e+06
4493.63
1.16713e+07
107365
90620.5
248.615
139207
1562.98
360527
2.23698e+06
4624.48
19751.2
6589.19
2246.24
8.09002e+06
86203.3
55019.6
95238
209999
6293.11
1499.36
202416
3150.39
69699.1
70848.7
9867.2
103400
75919
12184.7
96308
139895
7179.57
267617
66502.6
977791
1.02749e+07
414438
596421
44391.7
690.089
71124.4
633398
18314.7
17427.4
4178.87
113969
157323
460.809
1029.13
66066.8
308577
141952
5494.75
319655
1.20108e+07
18600.6
134635
489066
1.56975e+06
319341
963.404
8.34784e+06
73814.3
61043.4
311140
3.58188e+06
42657.8
16350
14877.3
30.026
66444.5
71138
5026.48
1892.38
7631.58
283838
20271.5
85372
149464
62593.6
25246.3
2255.6
142046
1.43114e+06
81017.6
18296.9
15027.4
25011.4
129604
86475.7
21599.1
385364
1931.38
16304.1
66005.2
1673.77
39393.7
134933
69365.1
317011
1.20108e+07
4460.05
711017
94048.6
128503
17117.3
1742.98
80546.4
13013.9
240756
74427.7
189627
83968.2
25398.2
10913.4
64607.7
1.33203e+06
48165.9
70173.7
2828.41
25855.1
180784
7321.92
17433.4
27994.9
171182
72447.1
32387.5
1.15901e+06
123408
4127.11
683531
3.70918e+06
122537
17353.1
186661
133717
133723
1.18561e+06
356801
236810
1171.34
71978.3
17.7408
542194
1754.12
140067
80932.9
93014.1
82276.8
205663
13075.2
85196.3
927381
84663.1
348258
68442.2
215652
317066
826.009
97038.7
85992
111164
1104.65
1804.1
4932.74
19729.2
80766.1
133118
1825.51
4147.38
54744.7
15317.1
808.801
3044.75
4905.74
20079.1
226427
257122
78782.3
52624.4
247328
948888
82211.9
292766
67006.7
70494.6
348151
3.17312e+06
1.20035e+07
52177.9
136568
321164
77462.1
266482
283702
68096.8
1544.3
2277.24
4289.3
9135.99
7383.71
1077.7
2195.24
7.29005e+06
4.90669e+06
27265.1
894058
136910
4461.6
151102
24735.2
82177
2.76249e+06
11977.7
76692.5
2551.8
50460.2
1.19322e+07
92201.6
328165
489672
146087
1752.2
1867.29
8010.73
345095
3409.17
7798.58
1.20107e+07
319.657
312403
4464.28
314599
49985.8
174247
136551
79116.7
2484.05
71910.7
68175.8
1.54455e+06
47001.5
2433.16
109146
95650.1
163469
4217.71
67921.4
3047.14
2201.78
2.22287e+06
371575
71307.9
7866.24
71708
73274.6
114669
65159.6
253927
1210.7
63831.4
267957
47709.6
1.18464e+07
66049.8
10562.6
15634.8
3.72683e+06
66292.3
37087.2
2224.21
843.65
14154.5
7322.5
72098.5
76894.1
3873.38
101712
1665.09
2203.58
2760.14
22711.1
2588.06
84627.3
35784.5
1269.63
1641.94
72891.9
4168.83
2457.45
894058
13182
4464.42
5.15479e+06
81569.6
32741.2
958422
5.94321e+06
14736.9
53212.8
213145
3.63761e+06
22920.7
715132
1.11862e+07
25604
8.58449e+06
593.744
121739
487.147
1754.39
8011
166951
15938.7
10952
77496.2
2.01749e+06
7528.7
707.224
4283.36
41470.1
98001.5
213.585
20062.3
3938.3
1678.06
80794.8
1368.53
524233
754635
59864.7
1936.65
206477
142384
274833
530941
75197
144295
53466.9
152318
2414.29
102521
64819.1
213.098
5258.64
4204.33
1465.59
11544.8
1544.08
75513
1.86807e+06
97993.8
108039
45893.6
119650
115491
72415.3
1.17749e+07
83126.6
20227.6
2452.32
102591
32248.2
163166
13504.1
2.61755e+06
9.11507e+06
1.9448e+06
1585.46
200061
985.124
626.428
83973.2
18127.4
4206.52
84793.2
78920
16133.3
241137
1730.6
66954.4
1598.87
1.03613e+07
45790.8
123292
1379.82
160486
71623.1
85997.5
2.58766e+06
1.02032e+07
116.689
2.43093e+06
2166.59
87749.5
2288.76
81545.9
65733.6
94314.9
5222.23
1.31616e+06
61978.2
90207
148331
38104.3
3477.53
89948.9
97673.9
71348.3
966974
11290
31374.5
389306
2340.62
132934
17510.2
80578.6
344064
583149
1445.38
170531
1062.54
21749.5
749862
86109.2
119059
15210.4
31676
38878.1
66564.7
130670
192375
2074.73
2793.74
16930.1
73596.1
196689
4459.55
1.20085e+07
104499
6888.3
123383
3265.15
163.376
11442.1
645.591
20021.3
354425
16823.3
77068.6
1.12746e+07
1853.76
323672
6.35028e+06
476024
49934.4
148906
15200.3
17155.1
215320
21372.2
1858.4
4294.88
5063.09
199240
5936.81
10500.4
4443.01
2.70447e+06
338090
71035.4
9933.36
77624.3
1683.48
26.1586
166531
1934.21
52.3364
2041.68
29863.5
10649
78943.2
160189
68372.6
68322.1
32647
80378.8
1261.61
29559.7
135830
77784.5
110690
1637.41
148912
24725.1
1756.73
33829.7
8.12647e+06
213089
119932
162284
1.37976e+06
74017
811.908
355667
901.184
1845.36
1277.5
1242.17
336533
243482
193863
98401.9
2566.19
2658.62
84774.9
4373.52
1302.68
109458
113149
263446
679455
65616.4
1870.06
283.009
303355
84090.3
11539.2
898.976
1198.35
118017
263594
283235
8242.38
33552.5
198478
43413.3
28085.5
1.65818e+06
850.485
4343.1
341204
5.90715e+06
31760.2
361028
28732.4
282693
1307.79
1244.54
1758.34
95676
75218.7
2.51493e+06
146103
405.425
4432.32
63699.2
103019
1113.18
48132.2
66888
70068.3
7916.04
368561
25565.5
1838.94
88849.7
26712
706.196
632528
1475.23
70981.7
235.498
11366.4
181446
783.735
477811
378223
4.99418e+06
451.89
4482.46
3498.12
8254.24
142270
13486.5
9278.84
4.95176e+06
1007.05
63816.2
8455.59
63592
19544.1
15247.4
278793
127768
3801.3
1654.06
67021.1
4004.55
23508.9
3843.92
806.546
11988.2
66323.5
25225.2
14972.6
6.17098e+06
16481.1
2429.49
2046.29
11099.6
185040
245421
886986
71511.5
212683
4943
12077.6
270171
84784.9
1.91226e+06
11616.1
3503.13
21652.6
85824.3
284275
55427.3
78333.1
7.31645e+06
2.95206e+06
40881.6
1.46582e+06
2025.17
893717
43776.5
1294
12428
48091.6
5481.59
231116
6.40626e+06
110219
127000
110390
5.08952e+06
46146.5
2335.42
196092
177883
198017
1209.46
6.79566e+06
2251.05
67515.3
3949.67
591.912
1843.47
1868.7
101970
66602
64142.5
7.61666e+06
172336
487055
202177
232260
107505
211882
79319.1
132314
694.028
1786.55
96167.2
292913
11176.3
115.344
226795
2.94436e+06
102244
10299.6
44923.8
95066.5
2982.65
6659.99
1675.23
149754
92981.2
3.65891e+06
68144.7
73542.8
149192
861.178
92573
1248.37
116097
552130
927.771
4451.48
28643
293244
11560.5
813.187
1930.34
80045.5
102246
44404.7
96355.2
13401.2
32558.7
1835.15
4382.6
41231.3
31129.5
11250.9
75792
69370.6
1.24228e+06
68127.4
4730.36
109076
184576
1.76876e+06
67815.6
39080.9
70132.2
1416.54
5876.43
1.20108e+07
39981.8
68773.4
264094
35991.2
1872.59
45286.3
233380
855212
7.05243e+06
942505
1.20047e+07
4074.73
208728
12825.9
7611.02
78075.2
2015.78
126357
183665
108347
118779
58089.6
1504.06
31316.2
12149.1
30468.9
8976.18
1.40642e+06
34143.3
71119.6
3111.53
73903
77186.4
147578
518931
65281.6
118710
28208.9
648.583
1.19484e+07
1341.21
319653
3927.32
116560
2345.41
4830.47
52480.4
1095.75
77898.6
1814.5
35147.4
1649.95
1702.05
17278.5
146844
11.1739
538113
100981
18776.7
484862
1395.95
72227.3
4354.69
39139.7
297359
104943
51213.3
38522.4
1.25031e+06
137441
3108.45
71509.2
99178
54789.9
515.223
11688.2
3569.4
80821.4
5258.68
128300
657.601
74313.3
7654.35
10146.5
385555
42025.9
278789
147552
1.92886e+06
784.938
54707.8
264077
15213.6
370.099
336677
553315
4327.85
247727
48040.3
35232.9
2.82987e+06
71113.9
164592
2166.86
89043.9
3233.73
18.5176
3716.05
37821.6
22558
24353
2.76431e+06
637497
49507.5
68897.7
266368
102269
1.20108e+07
1229.7
14485.8
118198
2056.26
4.00759e+06
3053.85
166394
4402.77
4955.65
24462.1
62321.2
8960
61303.9
1727.71
62850.9
646.602
118527
5.18374e+06
1.48023e+06
7085.66
7.25202e+06
4120.07
44164.1
73944.4
108.627
85748.5
43858.3
13516.4
13722.2
101195
20367.9
191200
532492
126578
2136.95
779716
82239.1
64462.4
1543.94
76181.2
14251.9
711.149
1709.74
1387.06
8.01802e+06
168569
87011.1
29700.9
1.17311e+07
2664.22
14096
91726.4
4647.46
72228.5
1.2007e+07
6457.84
692.368
382655
38354.4
1.20108e+07
2184.15
316648
203055
13957.5
29711.5
16979.9
151619
3536.85
126816
4.86005e+06
3110.96
7.00861e+06
1.02782e+06
4429.88
1.6149e+06
4451.25
311401
11813.2
25849.2
4201.29
4167.03
59673
206089
255621
72027.1
1802.35
7.85099e+06
9586.49
4043.87
149248
2912.5
6.21721e+06
4283.57
258656
357213
17396.2
17560.1
20476.2
57345
367.409
947107
156879
4855.33
599975
60244.2
77048
230878
4405.53
20045.5
10263.9
277394
565485
74861.9
2.62233e+06
60466.3
67647.4
78840.6
160147
14750.7
68289.7
27803.9
47528.9
20498.5
58926.7
4158.21
1651.49
158804
78669.4
761845
8071.74
1.91279e+06
74863.6
21614.8
52118.1
565.268
17537.2
100255
10349.5
158302
4437.3
69483.7
328519
2906.15
37950.2
211199
21028.1
7915.47
75130.7
17175.8
4.43444e+06
1.19682e+07
11674.4
216699
54862
162233
1320.72
69186.8
10554.5
69588.9
93523
133661
1847.32
2519.68
1005.02
172677
726.14
290044
10059.1
11125.5
1538.85
150245
60470.6
4353.35
3666.38
3156.83
4133.92
22494.3
418.253
292232
96626.6
73538.1
43640.9
1349.68
197969
7962.4
3.16507e+06
255818
125203
1591.28
2112.04
67272.6
787.562
7452.87
493525
50469.6
75142.9
37814.8
828301
1406.89
574.584
8.8441e+06
7859.54
1292.6
135271
4338.93
66176.3
1396.06
43180.1
216386
38100.5
905379
3537.67
1.35253e+06
83510.5
24958.4
448426
67656.3
4.78274e+06
12617.8
47278.9
2547.48
1831.07
90707.7
43855.4
26079.9
183074
1.14358e+07
1.00494e+06
75114.6
201240
560.578
179685
125041
21953.4
121952
56972.2
16752.8
65938
29848.4
96491.1
21654
704.6
1899.79
68984.4
6260.03
1926.83
53610.2
78322.5
65750.8
65046.1
193052
14513.2
70910.9
68209.5
75232
579740
123231
2936.8
1325.53
33230.5
67359.8
5778.35
752112
11185.4
71613.1
105988
13403.9
8.53548e+06
1.83701e+06
4441
7998.89
100557
13287.8
67847
2609.12
1444.74
3.64029e+06
1666.2
39741.8
206606
73432.9
122838
1.19996e+06
5857.32
270376
56401.8
68560.2
147086
93622.8
6163.91
1.34679e+06
3010.14
1.51046e+06
3.64853e+06
478088
1527.21
1.12023e+07
51376
78662.5
53153.3
4431.97
1297.82
1.20096e+07
1.19789e+07
67956.2
2359.29
7124.23
13168.6
1.09649e+06
96112.4
90373
8.42797e+06
174324
1128.2
34819.4
2.01957e+06
174055
66881
2.88154e+06
68904.8
52622
4120.97
606051
70859
134329
8.87115e+06
93120.1
77529
2.25742e+06
164040
79884.4
7.72362e+06
1137.31
689077
1177.4
55612.7
117311
27758.2
17392.4
2421.98
25198.9
72518.1
80997.4
25453.5
280517
66237.7
65998
354207
57311.4
73265.9
2550.38
53956.4
138878
6080.92
1174.55
23819
59704.8
4337.12
12466.2
4614.52
75062.2
68107.3
1059.07
7854.18
2040.36
6.25573e+06
90099.7
117854
30700.8
159729
215744
9.45423e+06
123206
14873.3
52133.6
4517.08
52858.4
34053.7
5474.33
4215.43
248722
238316
12806
48847.4
2525.99
2.16881e+06
256674
750.269
4127.41
124644
26020.9
9.72916e+06
3249.43
14512.6
11935.2
87290.9
18379.7
228387
2416.6
16361.3
236465
23716.5
102467
237255
17438.9
4166.77
37637.4
67412.2
404987
1.08953e+07
17912
207354
8.3725e+06
1.20079e+07
238830
195072
4226.75
241989
4228.46
131876
589.525
4208.01
41296.5
104049
146894
17263.3
206090
14243.2
72363.5
1418.2
265211
208659
10522.9
4.29761e+06
81169
453650
1.19689e+07
1.19907e+07
2304.06
49555.8
108632
5298.84
127241
70530.6
2.13859e+06
46128.9
818643
380682
743.484
828.293
638.413
598.003
632.831
179.197
756.017
295.641
655.587
8397.64
1864.76
247670
68712
2510.65
221206
9225.03
74115
7967.24
55306.6
104473
180570
29228
23327.6
1550.69
113070
1717.38
9886.23
26746.2
69696.9
54164.5
4356.6
30924.4
305659
78495.4
77291.5
37849.3
107223
91599.1
37149.6
68017.9
1057.49
2371.5
247856
8.29157e+06
1409.58
71502.8
1400.3
1794.3
1737.01
1690.15
1561.91
177458
343973
262787
294959
11697.7
223284
70458.2
1334.75
10630
65824.7
137204
870.721
2371.43
88472.6
253662
1312.47
8228.42
166491
3612.72
117676
91928.2
26620.1
1379.65
50451
19783.8
2291.33
271514
4321.91
29628.4
36720.3
1864.24
2198.35
79898.5
291944
7.9404e+06
890973
142123
9398.15
63912.4
11613.1
28437
6017.67
67849.5
1.19491e+07
1.6515e+06
66385.2
77543.2
366774
188911
1283.64
8.67499e+06
171025
20911.8
65566.4
3.47914e+06
284080
59655.5
51869.9
104119
203065
126766
1903.8
101363
16391.4
88475.4
871909
149863
2128.68
326912
20581.8
102870
4483.67
156278
4587.49
844.656
158839
73837.4
69650.3
24736.7
2.68398e+06
1136.39
280065
406443
799.93
135295
287320
225428
583121
123738
2140.64
14688.5
13374
2168.54
29560.7
42523.1
144082
55023.8
552947
256361
93239.4
98069.7
136559
291064
71184.5
1862.01
12259.3
52356
12896.2
336466
12885.9
170139
82427.3
57480.3
182075
11782.4
471.271
1459.9
1055.51
1.59794e+06
428240
79698
136537
406585
99489.2
467690
13885.7
256600
13625.6
764048
65945
108042
1.19486e+07
220374
7.10389e+06
4820.8
67624.9
10930.8
47894.6
5564.63
77660.8
111166
94045.9
35030
55154.6
106021
56510
148519
340389
4.2231e+06
26029.3
2.33331e+06
8.0946e+06
4.79722e+06
9182.32
1939.08
115349
535511
76852.5
73791.6
3330.92
15577.6
92562.2
4078.67
66186.1
291459
378396
239774
132698
86780.5
89251.3
862.943
3.67243e+06
221226
6906.52
4412.76
120462
7124.79
159920
227344
1640.48
149454
4346.92
133119
139178
3298.36
132918
2090.81
5.10356e+06
13735.9
96314.7
4.98223e+06
7252.05
273027
1.04414e+07
9.94367e+06
22618.7
2.44057e+06
86753.9
196767
494545
2658.72
8896.85
201292
206748
218410
53207.6
191456
7420.06
40768.8
95953.1
13051.1
4733.11
535.272
92085.7
74348.6
1723.26
91736.8
25418.2
144621
135807
51121.3
66207.6
2457.92
1722.41
1505.72
4840.92
635
1365.59
77259.1
2120.7
103730
158765
76579.7
63235.9
211115
67788.9
72605.5
5.23172e+06
3.82632e+06
86662.4
1736.63
78220
59375.4
264260
2935.53
88402
1863.39
17759.3
2650.83
7367.03
75411.6
3753.17
36580.8
71830.3
28450.3
587.607
1.15628e+07
297342
4158.38
88381.7
73048.7
37983.2
2.10353e+06
22375.3
361286
34591.2
120389
12999.1
75371.9
9197.84
8.04053e+06
49374.8
186716
96521
61881.4
237730
9857.33
1202.15
4.53357e+06
7956.73
223221
4087.21
3861.63
26501
15619.5
486029
12019.7
3922.09
241901
122926
42416.4
211462
115947
55564
4574.89
76119.2
10389
11048.5
13698.1
283396
274072
1.19886e+07
1.01504e+06
1607.19
3235.8
67391.4
167578
859.631
215436
481.239
1.19953e+07
61299
1966.39
2120.89
9162.38
4320.69
130150
339132
200398
111426
198813
1.23124e+06
70651.2
20743.9
89624.7
7607.96
477.592
35435.4
1737.05
8151.03
423873
422538
7530.31
201625
1.20104e+07
96640.7
87661.1
798.502
18768.1
160147
244608
4224.51
24062.6
19752
68360.3
26934.1
1.32691e+06
19754.1
400495
108469
38262.8
65332.7
38359.7
78251.4
154610
4087.51
36853.7
446738
50815.8
142666
67478.9
296282
11864.6
12490
90001
139219
3981.46
116657
127225
2415.81
309233
73298.9
1.20104e+07
42182.7
638794
165888
13067.1
77763
32489.4
236987
13553.8
284137
858.412
124029
67606
27821.3
1700.3
67700.2
30321
4751.01
476883
280064
28861.4
1356.06
44089.2
4166.39
32941.9
389191
2205.28
67124.1
237396
25744.1
24617.6
241811
363708
4596.46
2.59833e+06
127019
3.38895e+06
93842.5
2697.29
4194.16
54220.7
337640
124519
36006.2