/*--------------------------------*- C++ -*----------------------------------*\
  =========                 |
  \\      /  F ield         | OpenFOAM: The Open Source CFD Toolbox
   \\    /   O peration     | Website:  https://openfoam.org
    \\  /    A nd           | Version:  8
     \\/     M anipulation  |
\*---------------------------------------------------------------------------*/
FoamFile
{
    version     2.0;
    format      ascii;
    class       volScalarField;
    location    "9e-05";
    object      nut;
}
// * * * * * * * * * * * * * * * * * * * * * * * * * * * * * * * * * * * * * //

dimensions      [0 2 -1 0 0 0 0];

internalField   nonuniform List<scalar> 
23640
(
0.00133325
0.00217891
1.19126e-05
0.582742
0.00349197
0.00724485
0.0423176
0.00540721
0.0171319
0.000944837
0.037499
0.0176213
0.00312958
0.00448897
0.000799199
0.00235841
0.000424397
0.0083447
0.0207304
0.00735125
0.020251
1.81294e-06
0.0208525
0.0030549
0.00656232
0.0435383
0.010595
0.00824745
0.000784857
0.00201898
0.00157464
23.4448
0.0192492
0.0105649
0.00548376
0.000458803
0.000451688
0.0010686
2.60218e-05
0.0075359
0.013941
0.0149199
0.00891112
0.000148708
1.8703
0.00860917
0.000835888
0.0385969
0.000993632
0.00453433
416.801
0.0144449
0.000388546
0.00165391
0.627147
1.23179e-05
0.0112918
0.00214761
0.00258701
0.644799
0.00151692
0.0102918
0.0929441
0.0159478
0.00236215
0.015524
0.000167586
0.00551993
0.00130487
0.00780781
0.0112442
0.0107906
0.00980213
0.00075264
0.00223009
3.80133
4.0671e-08
0.00298685
0.0209793
0.0865721
0.00872363
0.00571899
0.00606939
0.00670344
0.00227744
0.000140638
0.0139379
0.000580746
0.00271596
0.000901431
0.00444726
0.00210456
0.00222732
0.013466
0.0168056
0.00211895
0.0165263
5.06744e-05
0.00111612
0.00156221
0.00363896
0.00174916
0.00155298
0.00162556
0.00497052
0.000998731
0.0519652
0.00267547
0.0194151
0.00135022
0.00136799
0.0104879
0.011346
0.0144507
0.000852287
0.000966025
0.000659213
0.00140053
0.00121975
0.0021525
0.000227061
31.22
5.51022e-05
36.2939
0.00863214
0.00399727
632.772
0.00395071
0.0078793
0.0192141
0.0086908
0.00520484
0.00311051
0.00959173
0.00200826
0.000132018
0.0262935
0.00586225
0.0364599
0.0169969
0.00114907
0.010348
0.00880942
0.0386221
0.00460288
0.00167093
0.0392086
0.0138907
0.00534059
0.00116599
0.00393566
0.000326099
0.00520841
0.231335
0.00744458
0.0011145
0.0436248
0.0125451
0.000133406
0.0105415
0.000536406
0.000378826
0.000470315
0.000573543
0.000668511
0.000655395
0.0228226
0.00583392
0.072
0.00513767
0.0408605
0.000884408
0.00237004
0.0213426
0.0820456
0.0711626
0.0183553
0.00161005
0.0892257
0.00276804
1.8637
7.35107e-06
0.00622726
0.00865131
0.000500272
0.0118034
0.00896582
0.00277106
0.39604
0.00851266
0.0238951
0.033234
17.7594
0.00469394
0.00113422
0.00406673
0.00487824
0.00330109
1.60985e-05
0.00764158
0.026522
0.000129531
0.00115837
0.013722
0.0202852
0.00214888
7.31099e-06
0.0198866
0.00197845
0.0325424
0.00374114
0.00590413
0.00177414
0.00224441
4.33342e-05
0.00231731
0.0416863
0.00741847
0.000869201
0.00014389
0.0018898
0.0343617
0.0265285
0.0171024
0.00380932
0.0120638
0.0375403
32.6243
0.000174854
0.00413034
0.00142845
0.00147891
0.00795775
0.00558627
0.0127647
0.00585479
0.0126954
0.00248193
0.00492362
0.00624114
0.00392607
0.000171619
0.0134258
0.0116975
0.490384
0.00181813
0.00224639
4.81698e-05
0.123279
0.00286088
0.801505
0.045122
0.000803038
0.0782239
0.00211155
0.00815292
2.3099e-05
0.00180746
0.121093
0.0850962
1.08323
0.00127962
0.00437168
0.0195665
0.000275432
0.00967148
0.00969651
0.00100892
0.00203382
0.0136149
0.00224856
0.000677959
3.56396e-05
0.479372
0.00348395
0.0110003
0.000454222
29.2961
0.0179351
0.0225527
0.00321875
0.000192525
0.0112464
0.043382
0.00657765
0.00986311
0.00348621
0.00161441
0.0202107
0.0424552
0.00215357
0.00063845
0.0022218
0.000954435
0.0356028
0.00866475
0.0207069
0.00070874
0.0331058
0.000977615
0.00586419
0.0161285
41.5319
0.00202309
0.0244703
0.000634755
0.00555985
0.00880125
0.871628
0.00800363
0.00210647
0.00421961
0.0850211
0.0173284
0.0250311
0.0096065
0.00289575
1.63611e-05
0.0170704
0.00656299
0.00121635
0.0111669
0.00537685
0.00825186
0.00194122
0.00344867
0.0099058
0.0030139
0.00125721
144.941
0.0103807
0.0056063
0.00856935
0.00890029
0.00800765
0.00196442
1.23445e-05
0.00251392
0.00946305
0.0344414
5.93399e-05
0.00562576
0.00746547
23.4549
0.0231715
0.00823139
0.00983654
0.0197449
0.0122732
0.00823404
0.0860168
0.00310604
0.00221914
0.00139446
0.00547199
0.000621469
0.00489455
0.00140242
0.0851391
0.0356134
0.00909563
0.0274299
0.0165466
0.000887702
0.00237379
0.000480164
0.00038946
0.00194938
0.0216923
0.00220945
0.00307237
0.000677311
0.00203625
0.0254272
0.00863388
0.00230485
0.531241
0.00011158
0.0027867
0.00980265
0.01076
0.000743194
0.00185994
0.0065281
0.00164143
0.00130886
0.00132262
0.000626395
0.00579185
0.000877777
0.013995
0.00323403
6.16333e-07
0.000507991
0.0043897
0.00490056
23.4383
0.00124752
0.000757366
0.00919404
0.000273809
0.00136515
0.0082539
0.000704172
0.00301433
0.0383933
0.334692
0.000793811
0.00117393
0.000176068
0.00345744
0.119577
0.0833353
0.0300763
0.0413931
0.0158285
0.00967494
0.00326346
0.0211369
0.00883564
0.128983
0.0136501
0.0327849
0.00267
0.00134183
0.000792745
26.3538
4.85164e-05
0.027284
0.00750353
0.000334196
2.56151
0.0301775
0.0187232
0.00921899
0.024572
0.00345825
0.000602082
0.00487275
0.29932
0.00879659
0.0732364
0.000170018
0.0010445
0.0119794
0.000349102
0.00948442
0.00193704
0.0289392
0.00193949
3.43896e+06
0.000179633
0.0900248
0.00455517
0.00600524
0.00164566
0.0204021
0.00557424
0.0773008
0.00113668
0.0220678
0.00611196
0.0110348
141166
0.000972601
0.0022302
0.000977506
1.0821e-06
0.00260679
0.0241141
0.008579
0.00200103
1.20815
0.000180247
0.00042994
0.00989227
0.0152858
3500.67
0.00420257
2.0566
0.000960232
0.000373604
0.00893749
0.00111575
0.00138439
0.00160583
0.0107615
0.000191525
0.00175211
0.000758041
0.00980913
0.861705
0.00282506
0.00215372
0.00306488
0.0397102
0.00236126
0.00972928
0.00135795
0.00133495
0.00225623
0.0748705
0.000776928
0.00182228
0.00190565
0.00213499
0.00451283
0.00170366
0.000658257
0.00313894
0.0091716
0.00118263
0.000543132
0.000229646
0.0177431
0.0152659
0.0111768
0.000970158
0.0104121
0.047629
0.00261747
0.0133116
8.82209e+06
0.000353893
0.0149055
0.0111134
0.0145595
0.0253787
0.0112436
0.00278384
0.0340279
0.00454091
0.00504886
1.7428e-05
2.9845e-05
0.00320698
0.000479345
0.00430709
0.00259267
0.0219213
0.00241541
0.00190574
0.00251843
0.0341216
0.000718624
0.0116533
0.000402623
0.00446081
0.00729804
0.00766021
0.005431
0.00518047
1.39412e-05
0.000147635
0.00483384
0.00231967
0.00459702
0.00010689
0.0273217
0.0946729
0.000169264
0.0177398
0.00188471
0.00760144
0.0175962
0.0198027
0.00249775
0.0209968
0.00232174
0.000831966
1.47098e+06
0.00408124
0.00330545
0.00119505
0.00138286
0.0214153
8.84654e-05
0.000171592
0.00352244
0.000689597
2.94602
0.0122792
0.00138693
0.0244549
0.0176987
0.00282387
0.00321242
0.0035028
0.0446418
0.0215519
0.121902
0.00899893
0.0150431
0.00886292
0.00225725
0.0171214
0.00762441
0.00952174
0.00202926
0.00237619
0.0422985
0.0294853
0.116456
0.00449741
0.00221366
8.02625e-05
0.00386831
0.000929332
0.015163
0.0138423
0.0019298
0.00413812
0.0171422
0.00340848
0.00678078
0.0040551
6.21435e-05
0.00178472
0.000724152
26.4342
0.0204402
0.0197863
0.0276857
0.127334
0.00646323
0.0158012
0.0498473
0.0256578
0.0020086
0.000191361
0.000599456
0.000574395
0.000151756
0.00269546
0.000243808
0.832383
0.00217081
0.0487744
0.00127634
0.000573539
0.00984108
2.67162e-05
0.0162614
0.0028194
1.62756e-05
0.0129162
0.0252433
0.00924585
0.00124316
0.0188545
0.00184985
19.7332
0.00354934
0.00326266
0.0074655
0.197393
0.00143393
0.010902
0.00334322
0.000176211
0.00901771
0.00817382
0.000959972
0.00319942
3.44815e-08
2.21216e-08
0.00131176
11.3448
0.00383387
0.00481581
30.8565
0.00137098
0.0363441
0.00177091
0.0182824
0.000542987
0.00318249
0.00459541
0.000804123
0.0775722
0.769016
0.00615208
0.00433308
9.25875e-05
0.0131168
0.00151101
0.46911
0.0106025
0.00818777
27.2974
0.000826891
8.73862e-06
0.00417612
0.00432852
0.012918
0.000369679
0.00158883
0.0196299
0.00717736
0.0118026
8.27811
0.0180741
0.00891665
0.00185357
0.00159784
0.0255246
0.00416276
0.00268996
0.0146447
0.00559882
0.0135959
0.00337209
0.00197097
0.000193213
1.33091e-06
0.000362064
0.00356822
0.0376641
0.0177074
9.31368e-05
0.00471091
0.00989396
0.00237257
0.00015468
0.00784899
3.78522e-06
0.000393527
0.00137736
0.00654713
0.417795
0.0219822
0.00137836
0.0648296
0.00976323
0.000894931
0.0126503
2.46448e-07
0.0151491
0.0722793
0.0220324
0.00461038
0.0133693
0.076261
0.00232799
0.00146145
0.00912205
0.00141692
0.000575878
0.00160235
0.00189516
0.012871
0.000370478
0.00723504
0.00244922
0.0159112
3930.63
0.00994602
0.00270055
0.0137159
0.00852494
0.00136718
0.00259612
0.00584046
0.00321219
0.342609
1.55689e-05
0.0479552
0.00963952
0.0118204
0.00791339
0.00189205
0.0092135
0.00834176
0.0110641
0.0025879
0.00329725
0.0634072
0.00454888
0.0148881
1.72371e-05
0.00324431
38.0922
2.233e-05
2.14386e-05
5.20759e-05
0.779334
0.00911449
0.00108114
0.00833043
0.0114157
0.000180424
0.000673071
0.00548724
0.00199011
0.000327539
0.00742049
0.000169034
0.0638319
0.000843282
0.00659671
0.00518889
0.00571791
0.00341471
0.0013546
0.00220703
0.214184
0.036274
0.0184051
0.0393676
0.00190169
0.000493046
0.00337858
0.004893
0.294472
0.000140897
0.0244886
0.0329611
1.63726e-05
0.00073348
0.0181658
0.00558681
3.75705e-08
3.95881e-05
0.00827302
9.03974e-06
0.0117165
0.00864798
0.00130042
0.0024961
0.00610705
0.00251216
0.00987698
0.00142562
0.0174193
0.0112677
0.00705504
0.00648514
0.012184
0.000102478
0.00321637
0.0169024
0.0212074
0.0354117
0.033939
0.000911708
0.00136181
0.240557
0.00242308
0.00640001
0.00382359
0.00288807
0.00294151
0.00147598
0.00192855
0.0206864
1.70977e+06
0.000580715
0.00567154
0.00705224
0.00415246
0.00588597
0.00123067
0.00201865
0.00244306
0.0105715
0.00287476
0.0346887
0.00133976
3.8582
0.000321089
0.00361858
0.0132541
0.071452
0.0290731
1760.22
0.000832607
0.00976792
0.00447016
0.00161811
0.000833473
0.00337133
0.00248011
0.0164652
0.00183998
0.00227053
0.0172608
0.0812801
0.00858567
0.444207
0.00459593
1.79902e-05
0.00971823
0.018361
0.000119162
0.000419295
0.0073851
1.02633e-05
0.00286786
0.000137701
0.00435558
0.0251403
8.62858e-06
0.0127594
0.00175148
0.00688678
2.10341e-05
0.00619033
0.00206281
0.00375564
0.00111819
0.00463499
0.000878751
0.00105968
0.00575001
0.0689963
0.00211737
0.0109337
0.093222
0.0205842
0.0552389
0.000553156
0.00543462
0.00230589
0.00565422
0.000587343
0.000433424
0.000895027
0.00531941
0.000557888
0.801583
0.0170963
0.0127183
2.00203e-05
0.00670743
1.32636
0.00639713
0.000388568
0.00296219
0.00120043
0.0907395
0.000119776
0.000375365
0.000141055
0.00457867
0.0577803
0.00610297
0.0220292
0.00510119
0.00221304
0.00125091
0.0215305
0.0341346
0.00114893
0.000156719
0.00366227
0.00243069
0.0350902
1.02757e-05
0.0480712
0.00185811
0.00514218
0.00341754
0.0191732
0.001421
0.0191529
0.00285191
0.0504386
0.27162
0.00267395
0.0452509
0.0295893
0.0011932
0.0337553
0.00741667
0.000167294
0.0032558
0.00945262
0.000198778
0.037085
0.0415287
4.83422e-05
0.00265383
0.0185899
0.0491444
0.0421425
0.0106342
0.000112258
0.00294432
0.00900922
0.0210699
0.00264784
0.370856
0.00795512
0.00929816
0.0132219
0.0040895
0.324114
0.00238609
0.00195071
0.00210215
0.0148257
0.00146532
0.0146815
0.0084986
0.000493628
0.0100779
0.00489257
0.00246419
1.45889e-05
2.70158e-06
0.000252911
0.00189373
0.00112523
0.0370916
0.00297011
0.00768345
0.00284982
0.0386305
0.00887389
5.1146e-08
0.018711
8.06882
0.000422284
0.00588779
0.00816359
0.0004845
0.0153355
0.151615
0.00036453
0.0472998
0.0175753
0.00743195
0.00913886
0.00870515
0.00154726
0.002274
0.00337743
0.00104865
0.0027502
0.000841906
0.00312024
0.0248463
3.53639e-06
0.0350898
0.00169114
0.00741262
0.0209923
0.00974645
4.46311
0.00498227
0.0143632
0.020066
2.18821
0.0039532
0.0110763
0.00199684
0.0131439
0.00851155
1.07123e-07
0.00932636
0.00166326
0.00333756
0.000877688
0.133398
0.0401906
0.00101417
0.000125481
0.00917063
0.0108793
0.000437428
0.0283536
0.000800542
0.000986473
0.0029496
0.00347433
0.00969329
0.00967604
0.00150757
0.00328904
0.00615938
0.00314035
0.000527256
0.00454231
0.0113166
8.10981e-07
0.000591169
0.00259005
0.022278
0.00716817
0.0121539
0.00821526
0.00897532
0.00218334
0.0049984
0.00136187
0.00269456
0.00325844
0.000703798
0.000159576
0.0539411
0.00182591
0.000211012
4.16219e-05
0.356327
0.000478896
0.0233819
0.0183339
0.000769506
0.00341141
0.00994246
0.00488003
0.00116161
0.00173272
0.00183821
0.0085426
0.00173646
0.00783951
0.0127629
3.7481e-06
0.00848027
0.0234756
0.0028249
0.00115007
0.00115946
0.000529736
61.9717
0.00188981
0.00975232
0.00189793
2.32257
0.0128215
0.00022105
0.00022552
0.0820711
59.0119
0.00254355
0.000194264
0.00555271
4.36418e-06
0.000687494
0.018091
9.57526e-05
0.000740508
0.0344908
0.0031358
0.00293294
0.337283
0.0971141
0.000326644
0.0111559
0.00520826
0.00137301
0.0031716
0.00289401
0.0101791
0.00182782
0.0103623
3.77347e-06
0.0086338
0.0250846
0.0103638
0.000237404
0.0105825
0.00129306
0.00311729
0.00664276
0.0112708
0.00269874
0.00917303
0.0113551
0.0188138
0.000255598
0.0057293
2.74509e-05
0.000698854
0.00142961
0.00191682
0.0130604
0.0301812
0.00812772
0.00119521
0.018271
0.0202849
0.00122276
0.00039872
0.0201092
0.00390299
0.000938466
0.00301834
0.0017519
0.00646585
0.00191877
0.00039267
0.00594741
0.0140756
0.0494293
0.000494418
2.18168e+06
0.0080073
0.0443494
0.00630613
0.0221524
0.0456544
0.0156932
0.00181173
0.00853093
0.000424442
0.00401643
4.69307e-05
0.037461
0.00045546
0.0158344
0.022777
0.0392183
0.00223482
0.0472778
0.00168545
0.0136484
0.00303393
0.000134667
0.00767261
0.000343789
0.00189296
0.0113922
0.0331155
0.0177503
0.0944827
0.00936742
1.48549
0.00660669
0.000293521
0.00414018
0.017791
0.00200669
4.92859e-06
0.0548415
0.0388174
0.00139344
0.000128083
0.0027196
0.0202254
0.00477916
0.00148221
0.0492376
0.000196235
0.000201356
0.00168323
0.00689949
0.000527701
5.68266e-06
0.0274267
0.000131423
0.00692645
0.0026557
0.00017841
0.00910531
0.00134705
0.000945472
0.00129934
0.02534
0.051215
0.00789382
0.00610916
0.0114016
0.00577644
0.00189573
0.0328685
1.08668e-06
0.00102699
0.00210217
0.00251731
9.35582e-05
2.38058e-06
2.78067e-05
0.00170222
0.0379318
0.0115736
0.0451022
0.0286864
0.00218136
1.40837e-05
0.0128733
0.0124574
0.0335852
0.000266972
0.00331048
0.000576996
0.00192981
4.86666e-07
0.0285021
0.0165965
0.000978328
0.000943809
0.00188939
7.98971e-05
0.00966626
0.0189029
0.00296538
0.00128984
0.00155096
0.0496599
0.00126915
1.95922e-05
0.00151819
0.00161393
0.00317146
7.38e+06
0.00208308
0.00212048
0.00563343
0.0183649
0.0342437
0.036249
0.00244554
0.000475695
0.00865243
0.0260627
0.0425597
0.00870375
0.000670777
0.00624766
0.000264561
0.00177831
0.00695652
0.000714469
0.00517578
0.000872776
0.0123753
0.000778026
0.00770567
0.00996956
0.03768
0.000561357
0.0164352
0.073071
0.00250698
0.00682656
0.0392787
0.0777336
0.0688102
0.00182631
0.000613446
0.00274001
0.000199468
0.00135857
0.00419622
0.00610852
0.0342
0.0013407
0.10688
4.08286e-05
0.010417
0.00143529
0.00522515
0.00895475
446.65
0.0100986
0.000190442
0.00500098
0.00535307
6.37158e-05
0.00640179
0.00282114
0.0507015
0.00859935
2.58031e-05
33.1696
0.00553976
0.31944
0.00124699
0.00110046
0.000587102
0.00577684
0.0169485
0.0128702
0.000200268
0.0193462
0.0211343
1.10811e-06
0.000299402
0.00341982
0.000600331
0.00141816
0.00967711
0.00167296
0.00375683
0.00623821
0.00916343
0.0600882
0.00996198
0.0316508
0.00118447
0.0053211
0.00102239
0.00405265
0.0474774
0.00810486
0.0106295
0.00946032
0.00878356
0.0187453
0.000268798
9.99945e-06
0.00269498
0.000659752
0.00376045
0.000733004
0.046783
0.0164339
0.0006955
0.00796741
0.00116786
0.000252651
0.000213894
0.00355302
0.0166555
0.00110194
0.0516966
0.00527492
0.0101124
0.0362268
0.0100388
0.00745533
0.109668
0.000417747
8.66984e-05
0.0021373
0.00650772
0.000235929
0.00820305
0.00318674
0.0022011
0.00159674
0.000168975
0.00212729
6.80467e-07
5.55996e-05
0.00205991
0.0200978
0.000872964
0.00371756
0.00299866
0.00219008
6.40797e-05
0.000826837
0.000206541
0.000220175
0.00213648
0.0253943
4.99319e-06
0.00308966
0.260401
0.00306136
0.00863111
0.00430326
0.00573473
0.0153467
3.89743e-06
1.6506
0.198449
0.0453074
2.14363e-05
217380
0.00271751
0.00910491
0.00346299
0.0351229
0.00413721
0.0011684
0.00876817
0.00759827
0.0247123
7.4856e-05
0.0061688
0.410818
0.00524278
0.0347227
0.0140047
0.00174649
0.000133284
0.00343945
0.00732472
0.0590725
0.0959912
0.000536888
0.0504117
0.0588491
0.00656127
0.00113721
0.0393709
0.00146764
0.0250563
0.00205152
0.00140611
0.0509075
0.0404968
0.0177246
0.0463499
0.00236609
0.00583338
0.0321294
0.00448681
0.0211571
0.179743
2.47958
0.0889938
0.653571
0.000356051
0.00832914
0.00316836
0.00284675
0.00911785
0.00527813
0.0474371
0.00190431
0.0180607
3.63715e-06
0.00488609
0.0219849
0.0467392
0.472704
0.134875
0.0671772
3.00418e+06
0.00137588
0.00404314
0.0214516
0.00874188
0.00965597
0.00456945
0.00053516
0.000218658
0.00263329
0.00328354
0.00217221
0.00292301
0.0169471
0.094254
0.00342876
0.0235443
0.0234525
0.000559097
0.00277196
0.0518999
0.028887
0.000989921
0.062155
0.00639249
0.00302283
0.00328071
0.00436869
0.00281872
0.00816984
0.00091627
0.00719766
3.83498e-05
0.0228968
643.818
0.296627
0.000151137
0.000118094
0.000192413
0.0108107
6.71017e-05
0.00580724
0.00312789
0.000629306
0.0180605
0.0182864
0.0173903
0.0017106
0.00607457
0.00211355
1.08109e-05
0.0120714
0.00502724
0.00221681
533865
0.0433286
0.000313435
0.00156284
0.365274
0.0021814
0.0262884
0.0176059
0.0076803
0.00968876
0.00223021
0.00193257
0.00833778
0.342439
0.0231224
0.00928302
0.00112259
0.00372859
0.017472
0.000189066
0.00285181
0.00143638
0.00933837
0.00834855
0.0771778
0.00942273
0.01102
0.00527401
0.000931748
0.00751984
0.00420531
0.0104222
0.000925347
0.00115237
12.7525
0.0162918
0.000134727
0.0133856
0.000351705
0.00342145
0.00295733
0.0114256
0.00215691
3.51387e-05
0.123866
0.0993861
0.00163166
0.00372262
0.128599
0.000344958
0.00857477
0.0111729
0.0416349
0.0182872
0.000629745
0.0421994
0.00375731
0.0130669
0.00266457
0.00891504
0.0574424
0.00881455
9.90155e-06
0.00373672
0.00316396
0.0267968
2.49079
0.0073211
0.049077
6.20166
0.00445956
0.0287775
0.0042698
0.272909
0.000605232
0.00278876
0.00736861
0.0242192
0.138813
0.00121392
0.0163772
0.000329811
0.0126972
0.0356031
0.00444418
0.0379495
0.00105201
0.00320656
0.0353414
0.0107045
0.00834283
14.5271
0.000357744
0.000177958
0.0011409
0.00985332
0.0211978
0.00194282
0.000595543
0.00213141
10.6748
0.00171329
0.001336
0.00231172
0.000327694
0.0247906
0.0245541
0.0033193
0.0138564
0.00886887
0.0430197
0.0220033
0.0068477
0.00950795
0.0099764
0.0246151
0.0311639
0.00436105
0.000230408
0.00436473
0.00220728
0.00117532
0.00901461
0.00219773
0.00303712
0.000340766
0.000598322
0.0779509
0.00357581
0.309923
0.00459029
0.00478574
0.00137096
0.0235524
0.0209498
0.00563417
0.0193402
0.0206812
0.00920514
0.0285641
700353
0.00586576
0.000139594
0.0276223
0.0188671
0.00257663
0.00579454
0.144565
0.0197075
0.0700968
0.0752886
0.000673481
0.000384743
2.02731e-05
0.00177465
6.3021e-05
0.0072323
0.0261748
5.51781e-05
0.0302416
0.001047
0.000321062
0.00325486
0.0171123
0.0233762
0.0194997
0.0352189
0.0296428
0.00319309
4.92013e-05
0.00240702
0.00104156
32.9453
0.00883128
0.0281224
0.010485
0.00556501
0.00535715
0.00595628
0.000176169
0.00986625
22101.6
0.00158019
0.0134301
0.0140825
0.00089949
0.001122
0.613792
0.406332
0.000831764
0.0117489
0.0176718
0.00142652
0.00870681
0.00855884
0.0155257
0.00234731
0.00343996
0.000600258
0.0195349
0.0113777
0.0683698
0.00333428
0.406063
0.000304454
0.00297512
2.47557e-05
0.00299151
0.00977602
0.0757113
0.00694509
0.0139512
0.00314078
0.0155128
0.00277411
0.0105623
0.0385399
0.000561624
0.0039788
0.022677
0.000153151
0.0255135
0.000464779
0.00498137
0.00798986
0.00195426
0.00910539
0.00943003
0.00840487
0.0219802
0.00216798
0.00823324
0.00598819
0.00118005
0.00177755
0.00112209
8.76315
5.71834e-05
0.00167054
0.0276931
0.00300689
0.0170863
0.00984614
0.0156939
0.00924965
0.0027264
0.000910274
0.000659418
5.05597
0.00430829
0.00302457
0.00406329
0.0203646
0.028449
0.0600246
0.0674264
0.000577664
0.0440686
0.0509666
0.00126573
0.0522958
0.0101985
0.0156025
0.00292709
0.000458152
0.000381897
0.000213268
0.000513913
0.000312573
0.000131454
0.00053472
0.000594053
0.000534218
0.00988219
0.00925483
0.00160677
0.00124258
0.0180874
0.00134336
1.48163e+06
0.00162107
0.00106593
0.0105525
0.000163444
0.0239982
0.00196773
0.00519516
0.00139495
0.00699142
0.0137111
0.00103829
0.00433372
0.00427152
0.011294
0.00129465
0.0037322
0.00644909
0.0112272
0.0102313
7.91617e-05
0.000297953
0.00782066
0.00538832
0.00374928
0.00354692
0.127765
0.00309291
0.00207756
0.00335965
0.000308923
0.00197792
0.00322951
0.0169411
0.00217692
0.00108192
0.0372246
1.41037e-05
1.48672
0.00327142
0.00386721
0.0329728
0.0018257
1.46425
0.00883716
0.0113969
7.83537e-05
0.00644962
0.00102458
0.0203847
0.129336
0.00186337
0.00368986
0.00274605
0.00156779
0.875241
0.000358549
0.00174831
0.0132056
0.00570128
0.00267334
0.00112958
0.00402758
0.00142534
0.00142654
0.00649815
2.53793e-05
0.00647741
0.00020676
0.00628519
0.00717663
0.0256919
0.00297671
0.0156314
0.00450218
0.0634472
1.10972
0.0255853
0.0391348
0.0218289
0.000246428
0.00944445
0.027904
0.00025477
0.000218046
0.0021256
0.0472305
0.0107927
0.000245516
0.000390567
0.0111669
0.0176055
0.0105545
0.000481447
0.0174032
14314.6
0.00294883
0.00761363
0.0206736
0.0321742
0.0171805
0.000360443
0.950744
0.00417094
0.00230703
0.0178237
0.262438
0.026029
0.00516504
0.00323702
2.95779e-08
0.0116235
0.00885074
0.00163269
0.00141078
4.24682e-06
0.00892205
9.66037e-05
0.00212555
0.00628564
0.0392605
0.000513528
0.00161555
0.0236091
0.0728155
0.00652723
7.97249e-05
0.00630416
0.00048572
0.0222568
0.00831091
0.000365043
0.0233945
0.0013614
0.0030346
0.040049
0.00131308
0.000170269
0.00553456
0.000175186
0.0178118
11478.8
0.00327349
0.0261118
0.0437759
0.0153857
0.00354133
0.00115196
0.0179702
0.00254406
0.0102189
0.00934793
0.00446384
0.00918678
0.0115615
0.00179469
0.00281172
0.0795198
0.00125532
0.00974433
0.00120159
0.000182271
0.00518185
1.15744e-05
0.00402771
0.000283961
0.0276288
0.00875317
0.000934433
0.024928
0.0206078
0.00206815
0.0119848
0.256273
0.0225678
0.00704028
0.00378429
0.00784907
0.0094436
0.0721769
0.0216837
0.0142259
0.00032392
0.00502012
2.32436e-08
0.0355748
0.00121443
0.0116699
0.00491366
0.00890229
0.00689258
0.011361
0.00365964
0.00435983
0.0202979
0.00775214
0.0208952
0.00851652
0.00602771
0.0171876
2.4769e-05
0.0300041
0.0448046
0.00887835
0.000827749
0.000781567
0.00200886
0.00405892
0.00378448
0.00337124
0.00120014
0.00168301
0.00233929
0.00257764
0.000258755
3.56351e-06
0.000521647
0.00883862
0.0076875
0.00322639
0.00879212
0.000720487
0.0132413
0.0256379
0.00620268
0.0164341
0.0095799
0.00710483
0.0208121
0.220796
66.8878
0.0210407
0.0095719
0.0124806
0.00373174
0.0116343
0.0155484
0.00427126
0.00101137
0.00160949
0.00202411
1.14384e-05
0.00312782
0.000479022
0.00174571
0.63423
0.366732
0.0101629
0.0570292
0.0212843
0.00308065
0.0103695
0.000546346
0.00872869
0.188742
0.00181188
0.00504436
0.00183624
0.0191792
14.8033
0.0111793
0.00875357
0.00424881
0.0381807
0.00114766
0.000778546
0.00335793
0.0197137
0.00272538
0.003283
2809.27
0.000138282
0.0118301
0.00312613
0.0142286
0.00347954
0.0104737
0.00590943
0.0141583
0.00179949
0.00778034
0.00340909
0.0791131
0.00103492
0.00176111
0.0052913
0.0126138
0.0111194
0.00194731
0.00498781
0.000932465
0.0016931
0.119534
0.0214469
0.00959431
0.00330279
0.0104918
0.0101189
0.0320737
0.00300392
0.0101608
0.000825742
0.00326242
0.0124961
0.0231833
6.40804
0.0100808
0.00181323
1.59112e-05
0.223742
0.00448556
0.0218924
0.00155101
0.000343877
0.00578342
0.00329407
0.0103397
0.00876873
0.00293261
0.0127416
0.00126705
0.0015622
0.000199098
0.000340468
0.00189017
0.0189169
0.000477319
0.000584022
0.0011505
0.00894199
0.00167487
0.00185333
0.0300228
0.00279392
0.00326737
0.411784
0.00848883
0.000449144
0.0639032
0.37567
0.00601775
0.00178567
0.00726089
0.220258
0.000453245
0.0154559
0.535126
0.0116214
0.501173
0.000323077
0.0208768
0.000151529
0.00073138
0.00335831
0.00944029
9.8222e-05
0.00187747
0.00838212
0.0145707
0.00118013
0.000496975
0.00189469
0.0153074
0.045483
9.15268e-05
0.0091678
0.00200866
0.00121056
0.00159067
0.000968185
0.0248446
0.0458898
0.000472054
0.00163279
0.00437042
0.00135776
0.0140803
0.00831558
0.0114545
0.0257922
0.000710726
0.00968959
0.00185096
0.00931048
0.00320172
6.51272e-05
0.00216945
0.00204488
0.00118364
0.00603953
0.00100312
0.011351
0.117931
0.0313577
0.0463682
0.0289486
0.000905618
0.00778721
0.00994811
11.144
0.019621
0.00849192
0.0021151
0.0571625
0.00641695
0.00852134
0.00706147
0.17164
0.208381
0.122817
0.00134262
0.0108223
0.00043245
0.000216779
0.00910881
4.35456e-05
0.00208913
0.0093928
0.00363944
0.00304177
0.00146773
0.000745651
0.0025696
0.00133127
0.432988
0.028803
0.0110079
0.000922476
0.0113543
0.0121351
0.0507662
0.159619
0.593883
4.67529e-05
0.163291
0.00193126
0.0488553
0.00162366
0.00893159
0.00821003
0.0465155
0.00215126
0.0666353
0.0367577
0.00562998
0.00374308
0.00534443
0.00083688
0.0318613
0.00110725
0.0118647
0.064043
0.00466557
0.000792944
0.0152295
0.0016537
0.0242002
0.00751071
0.00519167
0.0109204
0.0381888
0.00118802
0.00302867
0.000449625
0.00528949
0.0153939
0.00852819
0.0103448
3.23488e-05
0.00041269
0.0144984
0.00394775
0.00109933
0.00946284
0.00139679
0.000198501
0.0068991
0.00958422
0.00970667
0.00319153
548.883
0.00919695
1.50431e-05
0.0203465
0.00179686
6.11519e-05
0.00220051
0.000216923
0.0001863
0.0213896
0.00313778
0.00865895
4.22573
0.00131553
0.017584
0.567902
0.0276223
0.0244641
0.0479822
0.00504175
0.000143932
0.00631826
6.07978e-05
0.0012156
0.00190884
0.0005383
0.0053543
0.00250935
0.00427533
0.00322891
0.169479
0.0187565
0.00281551
0.00199631
0.0163054
0.000728118
2.79485e-08
0.011153
0.0015676
4.81301e-08
0.00149673
0.00634843
0.0047723
0.00511669
0.0112871
0.00279503
0.0130004
0.00430205
0.00804643
0.000552222
0.0143483
0.00635975
0.00236097
0.0553966
0.00108396
0.0103285
8.08634e-05
0.00149343
0.000143204
0.0753216
0.00575625
0.0184384
0.00249377
0.076391
0.0108593
0.00061418
0.0213769
2.49519e-05
0.00122204
0.000805045
0.00088599
0.0099963
0.00864832
0.00421615
0.0248687
0.0018796
0.00200496
0.0247418
0.00189197
0.000628686
0.00953255
0.00519119
0.014069
0.0446567
0.00259581
0.00122413
0.000110426
0.013552
0.0203023
0.00470364
0.000442176
0.000852693
0.0259599
0.0154297
0.0157263
0.000852886
0.00543317
0.00996161
0.000993522
0.00342778
0.104685
0.000389555
0.000371009
0.0193664
0.350297
0.000166483
0.0219703
0.0007327
0.0130737
0.000986994
0.00103782
0.00125572
0.0336278
0.039974
0.129491
0.0379104
0.000172775
0.00304122
0.00310305
0.0480725
0.00089759
0.00106489
0.0116068
0.00660162
0.00336613
0.0133379
0.00179105
0.00123783
0.0487638
0.000321059
0.000220163
0.0405217
0.000955529
0.0058981
1.30888e-06
0.00184111
0.00849196
0.000418188
0.0293119
0.02218
0.388275
0.000131679
0.00306075
0.00229253
2.34194e-05
0.0297334
0.00317562
0.00150965
0.38847
0.000785891
0.00177148
0.000939998
0.00241665
0.00920512
0.00598078
0.0126954
0.0267147
0.00287508
0.00134847
0.00910557
0.00256172
0.00858152
0.00243643
0.000323619
0.0022017
0.011018
0.000504966
0.00374498
0.533331
0.000205919
0.000672452
0.000812508
0.00549052
0.00382776
0.0106769
0.0573169
0.00194549
0.00698496
0.002018
0.00487289
0.0121263
0.00935041
0.128064
3.30626e-05
0.00275159
0.00359757
0.01856
0.00428229
0.0162047
0.0168415
0.693533
0.206345
0.000887368
0.0703418
0.00156764
0.058307
0.000947969
0.000503779
0.00127766
0.000303087
0.00225942
0.0127071
0.0508326
0.0500252
0.00927837
0.0170622
0.368653
0.0188981
0.00168359
0.0108178
0.0107237
0.00497629
7.36251e-05
0.475593
0.00193356
0.00424142
0.00313302
0.000189415
0.000752102
0.000752183
0.00242762
0.0109956
0.00315049
0.520289
0.0285442
0.0297513
0.00544145
0.00905999
0.0085387
0.0121152
0.00159861
0.023459
0.000216679
0.00138467
0.0422953
0.0133489
0.00579729
6.53577e-07
0.0134926
0.078772
0.009013
0.00207929
0.000363937
0.03303
0.00228577
0.00283581
0.00117131
0.0466839
0.0548477
0.165313
0.00330729
0.00739095
0.0424268
4.73199e-05
0.0282236
0.00074874
0.0175658
0.027538
0.000733068
0.00303823
0.000424866
0.0124957
0.00217006
0.000579544
0.00162433
0.00843981
0.00580948
0.021914
0.0160219
0.00333583
0.0167363
0.001296
0.00335329
0.000145401
0.000832553
0.00459447
0.00225392
0.00744244
0.0836415
0.00189061
0.00197219
0.00490843
0.0118911
0.0995582
0.00310789
0.0195668
0.00694933
0.00065842
0.00209238
3457.55
0.0240483
0.0134092
0.00729714
0.00874882
0.00139827
0.0178227
0.00931629
0.0435468
0.346612
0.0618719
253.356
0.00268956
0.00570849
0.00531602
0.00121124
0.000907444
0.00172602
0.00542384
0.00829568
0.00951121
0.000463114
0.00213909
0.000628458
0.000111417
0.00617288
0.00490437
0.00367725
0.0829024
0.00745814
0.00928652
0.00151704
0.00400219
0.00512942
0.042707
0.0234258
0.00381311
0.000872682
0.0132435
0.000228375
18.3211
0.0010807
0.00723995
0.00138835
0.0533182
0.00178602
0.00200808
0.0252053
0.00078955
0.00884341
0.00125442
0.000537416
0.00110675
0.00138718
0.00720826
0.0363426
1.35636e-08
0.0248617
0.0345995
0.00972373
0.026862
0.0011629
0.0452639
0.00278804
0.0196661
0.0137435
0.00249089
0.0231587
0.00110707
0.0206372
0.00205898
0.00122441
0.009264
0.00886731
0.000530028
5.49893e-05
0.00213651
0.00151876
0.00830716
0.00214858
0.00276909
1.83197e-05
0.0461519
0.00349003
0.00367461
0.0235688
0.017019
0.0154633
0.0467452
0.126597
0.000292849
0.00128584
0.0121815
0.00018105
0.000138623
0.018461
0.0363529
0.00315201
0.0134241
0.00124088
0.000728528
0.196469
0.00906252
0.00570927
0.000833772
0.0149457
0.000823049
2.09817e-08
0.00294236
0.000359772
0.00443359
0.005862
0.19399
0.0413513
0.00283417
0.00844252
0.0133591
0.027675
1.48362e+07
0.00108836
0.00162985
0.0190126
0.000812958
0.181202
0.0011588
0.00441763