/*--------------------------------*- C++ -*----------------------------------*\
  =========                 |
  \\      /  F ield         | OpenFOAM: The Open Source CFD Toolbox
   \\    /   O peration     | Website:  https://openfoam.org
    \\  /    A nd           | Version:  8
     \\/     M anipulation  |
\*---------------------------------------------------------------------------*/
FoamFile
{
    version     2.0;
    format      ascii;
    class       volScalarField;
    location    "9e-05";
    object      p;
}
// * * * * * * * * * * * * * * * * * * * * * * * * * * * * * * * * * * * * * //

dimensions      [1 -1 -2 0 0 0 0];

internalField   nonuniform List<scalar> 
23640
(
31.1187
122.356
10.378
31475.2
115.728
401.372
44.9025
168.263
269.779
824.188
25246.6
117.304
76.0875
107.554
618.177
375.812
16.0339
15408.3
20511.7
247.085
24078.1
8.05028
23828.6
24220.7
155.366
69.3343
1843.85
320.901
9.6039
129.225
59.3812
82324
24148.3
157.612
327.497
660.589
17.1824
34.9459
14.2218
27117.9
220.383
275.092
133.285
11.9274
33993.7
2591.39
28.6476
165.333
798.436
145.949
67480.5
15817.6
655.824
37.2609
31461.1
793.457
482.944
137.655
80.6614
39110.4
57.2411
2618.68
28539.5
16575.3
102.425
16490.7
325.626
142.035
13755.7
125.379
28503
155.107
21107.8
15.3135
357.305
82432.4
877.784
73.3314
20718.7
28012.9
3180.56
672.629
161.151
159.987
94.2059
956.024
15721.1
26314.7
22009.5
654.172
55.4008
141.017
607.432
21142
15361.8
115.884
17002.4
705.961
270.927
624.74
557.407
37.3111
24190.4
35.7215
385.145
32.1009
31871.7
38.7913
103.126
249.788
50.3219
21183.9
149.095
246.764
2159.28
21.1087
617.103
47.1895
28.2156
134.54
24625.2
44009.3
647.341
58653.2
694.482
25963.2
70832
977.088
401.848
270.827
506.427
459.634
79.8383
1069.61
35.8807
26295.1
25034.6
149.051
25053.9
17881.6
261.478
485.2
20819.7
25248.5
20903
194.37
26077
27081
64.5234
15073.2
142.888
414.744
133.296
29101.4
393.452
26.3298
45.205
139.617
312.123
1799.55
650.31
717.798
637.876
303.073
20.9985
16.2551
29997.2
1809.07
31922.7
456.293
164.932
1992.75
339.211
98.2399
29802.3
29985.6
270.388
1990.83
28133.4
148.652
33783.4
953.14
150.458
250.524
10.8349
7769.77
672.182
577.034
40595.4
275.389
345.994
25599.8
44275.1
132.713
14.7204
26865.7
397.032
523.913
1264.36
1255.07
22740.5
10.8521
38.4217
273.867
21660.1
57.8148
1370.18
23933.9
1300.21
30018.8
108.864
133.528
58.9022
63.0247
433.212
218.953
181.643
238.942
305.29
8.79618
62.8605
25277
22824.2
120.178
24043.7
146.14
72.9169
48002.6
9.20995
55.9108
33.5734
14.6539
201.555
128.654
137.981
656.998
28422.8
215.959
68.3675
3201.51
570.572
2548.11
218.361
281.255
30856.2
35.3547
74.396
798.838
27911
25437.7
39193.2
126.337
28.8304
29943.3
64.1021
27109.2
6.86091
18.6208
32639.8
32395.4
33358.9
50.0493
487.643
106.032
8.78637
133.807
1239.12
278.626
61.2031
14850.2
581.208
6.71217
24744.1
39535.8
956.873
151.254
11.1557
44555.1
16586.3
96.7005
26122.8
9.38565
7478.95
25597
350.149
2658.52
280.051
554.248
142.654
25467.3
152.915
13.5059
208.074
311.619
24966.9
193.616
238.582
16.2967
82.765
21.7017
1916.67
16896.9
46861.4
154.464
24711.3
8.75832
493.519
1732.74
32358.2
21017.6
30.63
779.49
29867.8
20766.1
22617.6
1158.08
557.945
6.96547
15713.6
377.108
36.4635
145.937
340.389
307.222
35.3028
768.507
49502.6
211.219
47.7757
85114.9
7597.76
172.238
255.089
427.724
288.656
158.762
1080.66
552.242
193.455
81.254
949.751
19214.2
381.262
51778.1
25947.7
14614
2044.98
112.061
138.676
198.166
32299.5
734.097
28.3769
46.5331
331.811
18.2441
81.5137
43.0879
28657.8
25355.8
642.414
24353.3
17785.8
20.2179
206.211
7.69669
6.20779
610.392
20665.4
127.34
1333.68
19459.6
31.5223
22758.5
677.668
28.2129
50060.6
8.11484
212.336
1249.9
20869.8
19174.1
219.612
19019.3
244.376
29.7508
631.67
14.8052
26918.4
6.24952
13817.3
468.165
911.081
648.083
550.965
25355.5
48403.4
37.7144
27.8552
1766.01
30.7155
30123.4
491.654
7.01523
78.2516
73.2242
33852
10.1809
611.836
318.67
519.237
27891.7
30817.8
329.126
26079
208.216
2469.2
88.4484
420.382
188.939
32417.2
14051.1
83.2419
522.495
854.217
7.74447
54838.8
653.696
24480.7
213.93
11.96
35413.3
29748.3
23710.7
704.332
26009
1373.03
625.36
2460.09
49497.7
441.575
28840.1
638.777
805.983
5414.5
300.986
1956.48
597.656
23465.9
613.669
97355.1
312.188
29997.2
465.257
12845.2
32.1
120.774
491.464
33162.8
635.253
416.282
332.798
151.283
84600.6
609.62
134.731
635.544
721.854
597.278
353.726
472.397
139.007
33365.9
10.246
35.6357
2789.27
191.894
90936.7
753.1
73934
297.472
9.28046
247.037
770.654
603.559
1262.08
24251.7
10.9013
63.8533
22.9369
1177.03
78267.7
67.94
25209.8
201.851
72.5304
598.084
7117.75
1699.94
40.8737
112.571
27135.1
7.06522
177.551
132.453
67.2788
540.138
22.7324
13.0802
76.2942
2773.72
34.8763
720.19
855.211
23421.3
115.034
146.489
13.2352
286.812
26080.4
532.428
12428.7
98449.8
622.526
135.623
151.073
23014.8
399.333
21007.3
103.077
78.4999
24133.8
865.465
542.051
770.689
91.3225
661.228
483.075
37.3805
364.594
262.199
131.363
209.455
81.7922
25.6256
151.499
625.54
21363.5
134.475
138.931
2828.96
127.847
780.777
8.94671
2292.24
96.3852
167.903
2811.46
24935.1
29694.3
119.245
26457.2
172.145
1300.23
18667.2
23688.4
345.348
22264.2
2257.78
660.667
95792.2
108.663
202.189
28.9764
44.3109
20613.5
655.776
950.318
470.43
24.3697
35386.6
343.825
43.1509
405.697
20933.7
22352.6
250.248
483.004
67.9769
22322.2
28047.8
157.259
246.021
286.133
68.4474
16013.5
227.134
1088.61
142.053
608.083
25982.7
23626.1
33134.6
832.953
128.879
941.618
597.939
32.1141
122.52
22923.2
127.539
147.215
114.426
185.972
426.353
571.491
704.991
221.221
23.2388
59890.1
21518.1
238.847
216.869
28134.8
126.903
15261.5
198.472
22982.3
118.249
638.821
7.30621
288.874
23.771
148.63
7.53768
32569.2
116.156
212.891
38.4094
632.058
279.973
661.094
26576.8
76.1962
919.865
344.625
22844.5
1024.51
29.13
113.329
611.568
48243.7
20911.3
61.7903
235.365
46658.3
1613.64
24349.5
81.0649
146.646
241.139
2078.15
21.1447
827.071
7.74619
5.24154
49.0649
50395.3
21547.6
359.23
47059.6
248.647
74.4834
611.192
17001.9
20.0586
94.6725
129.443
25.1273
27230.1
41330.9
315.297
169.623
12.9663
131.117
29.716
33169.7
188.122
2993.46
51999.5
9.15393
973.871
12462.7
103.345
12060.6
13.6767
547.054
359.199
25716
145.591
85367.7
16698
187.243
24641.5
38.143
232.301
27018.1
577.143
27542.6
521.418
21329.8
26226.8
1211.82
8.77792
6.26889
637.725
481.998
126.209
23564.7
635.129
401.096
2656.56
570.494
9.56748
364.926
9.81128
8.60734
25.8087
311.057
30525.2
311.937
39.4489
27486.7
26356.4
25.0897
138.997
645.232
210.823
27575.4
324.006
255.251
127.9
27645.8
1057.57
35.1103
9085.67
42.4154
17158.2
21.1319
109.727
8805.14
6.13829
266.313
93.9359
234.255
90364.9
1179.94
41.902
15241.3
27882.8
44.8372
93.816
11817.4
207.421
32769.8
703.546
26037.7
175.697
19280.2
353.151
557.619
206.561
2309.89
155.991
22596.2
80.2901
30874.9
269.502
13078
1281.71
534.566
62400.6
9.2571
1285.56
675.948
74040.2
967.452
28.0273
244.317
153.141
9.89386
626.921
20288.8
120.73
11.336
25497.5
257.223
28183.4
22.165
27215.6
283.779
522.167
194.12
50.4756
592.596
44230.3
129.116
20920.8
26996.5
103.365
707.436
23736.1
123.367
34233.8
897.288
406.569
43.2556
17791
634.919
105.829
298.237
728.277
20650.7
341.493
622.714
27204.3
531.55
45.0702
562.591
12047.5
99.1998
1166.16
38.0881
16969.4
151.735
268.024
376.601
5731.71
8.14667
84.8671
17065.1
371.285
24503.1
237.756
24.3817
29.7151
29178.6
98.9494
27678.5
122.211
161.259
76.8067
614.865
66.7737
19878.7
95113.3
287.872
502.09
288.466
570.375
500.679
33.5312
133.325
31987.2
2684.85
75.1017
24394.6
36.199
36177.1
629.86
875.382
27649.7
28662.9
24751.1
83480.7
9.74481
44189.4
3889.38
36.6556
6.24964
507.86
133.73
16962.3
61.6454
1109.07
430.992
28028.6
506.384
32941.8
76.8263
9.07827
1021.86
112.544
649.251
27554.1
363.897
877.675
262.763
9.32631
23730.7
22522.8
1547.29
152.562
61.7229
12204.9
10.1302
534.068
253.312
288.827
24.8269
1190.72
6.45103
847.529
398.401
50384.3
118.297
3457.17
31242.5
22075
26963.3
490.892
19498.1
134.659
27050
8.21797
632.077
12.7317
288.573
691.558
82887.4
16853.4
21094.4
7.82547
299.772
33655
699.707
661.528
102.713
260.565
27467.6
806.576
6.41016
1145.34
423.036
27029.9
525.609
27404.7
12968.2
32.1142
47.9562
268.551
25173.1
28.7777
641.774
104.4
133.661
31264.9
10.6041
146.91
31.8929
488.819
47.1106
21715.7
44.3124
113.517
259.019
162.217
45466.8
100.664
71.3245
23752.3
30.2853
25498.2
282.064
658.697
77.737
289.685
680.376
231.184
28311.3
696.92
102.802
107.783
174.958
70.2223
21213.2
11.189
85.9805
26120.5
20418.7
40.0123
32450.3
194.133
266.907
27777.4
251.892
44736.9
78.1504
251.385
539.55
439.127
45.3628
13312.2
278.273
617.834
2374.46
825.173
31.5657
1035.82
652.801
8.45736
135.57
37.7387
43.5037
25277.5
491.553
117.987
48.3548
181.707
720.831
21074.2
45662.3
7.45025
25855.9
366.898
12.3414
118.16
32710.5
17889.2
104.459
19056.4
353.968
178.721
191.362
38.3121
159
84.1705
620.716
185.446
26.8682
47.4573
27288.9
20640
44.3171
40.0738
1881.24
367.174
2821.91
36568
505.358
218.102
108.236
35022.7
25668
21328.5
132.003
15134.5
158.939
657.779
206.554
340.204
23705.9
19.7071
28078.9
70.6986
43.7418
8.73284
1390.03
7101.24
504.093
29684.6
6.07992
758.62
4564.16
3378.76
188.994
982.96
58.8024
106.159
25644.3
76.0634
665.96
407.824
5081.5
716.707
639.21
593.976
21115.9
29994
278.186
290.432
162.959
131.121
554.911
2148.12
151.78
85.1067
20.9136
616.319
69.0922
253.649
7.74609
10.6225
30282.3
12.3602
309.049
24564.9
17.9935
225.799
3276.36
20487.1
290.092
61.3956
61.1824
161.016
190.236
1503.09
8394.39
1193.09
491.325
30182.4
74.4816
35.9617
9.87818
19.9942
49241.9
131.977
174.178
132.374
33837.7
21468.1
723.562
719.845
30136
83845.4
34.9749
10.5814
231.628
1068.52
9.45277
16714.8
791.903
19.3692
25665.7
291.462
1123.87
30227.3
35852
11.2703
4320.41
527.479
36.5727
174.043
118.957
160.349
24.02
6499.33
18572.3
504.994
24616.8
198.601
899.702
16858.7
41.0714
656.006
362.247
19418.8
21955.1
228.199
3472.57
341.343
824.729
400.785
767.38
742.041
626.85
129.393
21632.6
338.813
143.573
26.6145
20579.4
21923.1
12.8012
15.1382
22585.1
3420.61
17.8203
24869.3
113.545
18652.5
123.592
313.217
233.277
189.858
124.013
13.619
95422.6
220.693
26002.9
126.082
349.443
26064.6
120.156
34.7913
493.411
910.59
25681.9
813.006
25705
7.962
120.395
308.778
186.889
36.8689
140.022
62.3877
8870.99
86.0902
8.0337
147.778
978.493
130.258
13948.8
25057.2
354.743
27551.1
8793.11
33734.8
354.976
613.783
115.614
19309.6
136.467
6.38406
68.8341
263.122
42.4183
8.65095
218.477
99.2959
388.866
349.803
32179.7
504.945
9.02984
195.267
16024.4
292.421
1029.76
83358.5
646.776
267.053
39.0414
984.648
656.46
48.2368
41.9779
49.5215
400.326
26095.6
351.489
18768.2
3568.89
523.702
132.406
81.708
8.07038
8.9861
153.317
28681
11.674
652.513
7.83222
200.214
27294.3
5462.63
26127.1
261.477
118.486
509.056
14631.4
265.2
24336.8
609.277
88.7051
22.9351
66.594
628.626
334.483
233.363
611.939
780.397
129.831
778.124
937.249
20402.2
106.278
32.5815
217.869
115.115
48.2853
1642.91
57.0291
48.7523
88.2278
95606.2
625.102
337.929
316.485
20439.9
25059.7
27043.1
164.801
918.192
477.406
22715
85.0451
145.751
20.0032
271.407
8.63449
32.5905
321.506
19.0896
538.906
9.28701
27066
3049.92
335.895
143.222
206.57
297.454
271.694
31432.5
164.613
1747.54
218.985
28292.7
28960.5
26.8926
7.01356
104.048
9.66728
38.0737
434.715
423.207
24407.8
803.613
29591.8
969.519
156.817
49.0744
365.73
186.802
86934.7
28509
549.025
1224.78
500.231
685.798
21161.7
75.362
54.4757
298.248
15.798
82565.8
201.25
31324.2
44.2404
31.158
10.0021
303.345
137.073
437.929
813.873
20486.5
28574.3
8.48011
9.15173
221.924
287.613
50.8847
2400.37
623.167
1858.71
268.194
1330.87
26510.3
1805.86
83.1851
27.5302
401.639
649.27
1253.95
111.857
356.526
1972.24
195.088
3038.14
397.035
9.4422
280.641
22853.9
15609.8
22343.1
6.7553
26118.2
15216
622.749
327.078
28.6782
641.872
9.5446
27270.3
115.397
31.7861
90.2597
367.599
141.216
25632.8
187.888
1141.46
29465.4
336.232
279.432
535.507
271.349
332.845
367.941
77.5284
130.897
45.4321
734.09
60.3254
9.5395
656.414
54.0422
22208.2
14.2215
276.979
97.2864
594.76
306.475
41.7579
9.5436
7.62274
115.563
23068.6
645.159
75.7175
42195.9
77.3048
186.152
68.369
514.864
13340.8
776.688
34026.7
43077.1
113.7
7.00837
84322.9
66.2226
299.894
791.717
28398.4
121.295
641.435
319.15
321.884
240.333
639.398
425.555
36271.3
20706.1
76.5052
14642.5
18557.2
11.2242
493.34
18387.8
26530
28120.1
637.808
54.8902
44787.4
377.327
656.147
73.0258
17076.4
24812.5
55.4054
47.3178
54.1867
70.4311
16267.7
66.1223
133.398
300.431
29251.5
1082.42
107.541
28760
34087.5
29696.8
40826.4
9.37597
354.684
22699.1
24773.1
184.629
474.235
54.0659
123.366
17142
965.089
1108.4
20959.6
56.5552
30958.6
36072.3
30027.7
94878.8
38.5335
121.472
365.102
186.374
6316.78
5089.98
10.7931
7.63902
730.093
218.199
131.707
1067.98
130.735
28842.5
247.617
241.079
266.132
6.87344
633.584
26196
43.9408
31.2499
48321
30113
499.38
87.6086
137.907
651.633
149.566
28.5069
324.059
654.727
26339.1
70920.1
31573.2
296.213
638.212
640.157
54188
320.6
514.58
209.65
20640.2
238.908
27455.9
19448.5
871.835
481.537
56.7694
6.42351
23303.2
230.156
152.9
95301.2
67.2789
304.872
627.868
33024.4
148.579
184.418
19669.6
205.496
2344
91.1767
22216.2
398.203
30445.6
341.023
228.349
590.499
246.638
15769
651.783
75.8169
628.76
759.917
370.252
27070.9
773.547
16452.3
283.682
730.11
157.351
250.872
1594.83
18.7113
651.133
46886.2
15439
1656.62
28553.9
30.0826
1291.54
69.8283
7147.93
83.9176
886.832
28870.7
28731.6
60.2463
511.61
27988.1
10.9191
270.205
149.749
193.532
405.375
9.53137
76.5761
237.416
23292.7
542.533
803.957
27114.5
671.507
15.6028
529.21
96.8588
364.16
81889.6
514.771
31306.8
45874.1
268.774
88.4558
132.272
29630.6
25.0234
100.162
385.964
268.203
28114.8
11.1167
347.71
628.871
31812.7
28319.3
525.009
25984.3
11.2913
86.9886
29141.1
18439.8
253.24
50558
10.2632
9.70665
29.9483
1850.42
417.786
32.822
19843
116.575
49173.5
33.7032
26.4542
133.424
10.8984
83849.4
85390
91.579
19910.3
141.573
248.734
29070.1
161.743
1039.61
167.891
356.634
44.5278
257.018
10.5009
21698.4
115.889
9.46373
646.446
156.198
71.8785
650.46
10.0773
27094.4
57.7641
51865.1
471.63
137.099
27398.3
28466.9
22635
301.088
23489.4
21826
210.655
381.476
96532.2
27435.8
10.0994
89.3076
23358.1
24772.8
201.089
28202.9
24486
32205.2
27752.6
16.7181
7.12006
845.68
202.48
1396.68
1396.81
22558.5
678.234
23845.7
20.0903
11.898
255.476
18574.7
26133.3
347.323
75.8299
24861.1
104.826
704.307
640.408
29.6776
53880.4
167.153
27777.8
1651.5
512.136
12496.4
503.312
859.382
143.245
87018.1
216.664
8358.27
125.207
28.4329
577.896
31765.8
30620.2
14.7259
253.605
16095
269.288
529.547
27725
12354.8
13991.8
489.949
5.91057
21652.2
4671.2
27452.9
185.077
33510.7
16616.2
71.4093
7.25548
99.8651
993.689
28498.9
357.133
14554.3
513.635
216.877
341.369
1848.04
153.589
721.931
146.925
370.444
536.05
23149.2
861.151
428.129
27493.7
105.63
220.01
20445.2
637.89
413.163
68.5661
140.366
295.803
40.3079
31.2094
300.431
39609.7
1124.1
16.4658
385.731
78.2409
363.787
167.528
12550.4
2632.78
228.655
31.2515
5.87404
37554.7
532.069
99.8935
137.04
19762.5
39.404
27160.6
28079.9
6.94949
26298.7
31462
32.3399
86.8548
26387.5
341.234
99.3289
6.56022
6.90606
7.51623
6.02157
6.84642
9.50665
6.00001
5.54436
5.40338
187.51
1146.21
53.7046
14.7035
16987
33.4944
96088.1
54.4643
9.98352
171.315
10.2196
22183.9
39.0303
363.366
42.6018
258.746
474.555
19.6781
27175
168.607
161.05
668.666
492.381
3127.89
158.97
185.084
10.8569
747.206
143.06
22689.9
527.955
1132.25
29116.8
96.4695
118.776
84.3187
11.233
31.7969
87.1625
355.537
28.7633
31.9529
27173.8
676.499
75871.3
201.962
14764.8
30363.1
120.47
64058
698.66
271.826
10.8786
1572.31
31.4438
22348.5
28933.9
122.637
142.861
140.351
61.7534
32055.2
19524.4
609.869
247.355
19849.8
185.504
10.0415
23786
49.0333
821.136
270.394
739.995
690.803
23578.1
130.428
530.945
353.21
161.657
12523.6
472.083
26767.6
38139.9
23031.4
25072
248.989
9.66978
174.019
26991.5
620.038
653.647
118.345
162.881
2901.42
9.52691
14.9864
150.215
16799.6
2005.4
291.813
20025.1
88011.2
165.193
1339.56
26362.7
30197.9
20372.1
13.1645
32256.8
556.234
597.352
17059.1
29219.2
39.1939
37.9991
109.288
7.02742
153.478
256.073
30.3581
49.2859
1035.87
24699.4
842.213
883.061
1868.37
43.7193
568.544
62.0435
360.53
28416.9
507.842
835.3
249.688
632.125
377.765
417.96
616.065
22244.4
51.4157
202.597
47.0496
32.3531
1617.42
1380.85
23825.9
18491
86644.6
91.482
27731.8
71.532
459.159
73.8615
40.4684
112.017
96.7546
12914.7
369.657
15584.4
330.905
344.374
245.152
567.147
27800.6
639.693
353.138
26.0742
779.183
4491.77
816.997
120.495
739.928
390.281
208.848
604.265
29484.4
349.566
117.524
28591.7
29592.3
271.419
289.999
21913.3
1343.69
1497.6
27499.2
20507.7
9805.82
11.243
380.712
8.22681
24565.4
29.3051
447.354
475.365
596.972
354.021
6713.29
196.482
555.988
29031.6
347.434
20120.9
260.258
21045.8
19818.9
335.865
90.8784
85.7931
755.457
23.8956
26.4536
107.477
93.3106
557.943
1808.31
38.866
77.4006
577.663
250.708
9.14537
609.43
295.851
148.267
15655.5
26734.7
258.37
914.404
11212.8
28789.5
526.776
15380.3
195.135
254.473
20236.7
29102.3
81205.4
75.2643
1517.64
24529.2
539.668
18422.9
14811.1
411.014
34.523
44.6873
64.0096
844.12
205.584
9.71429
29.8043
31921.2
30189.8
188.08
26564.3
365.517
95.307
2321.38
606.115
314.822
28837.2
260.699
543.992
65.8173
78.9631
52573.7
382.838
26052.9
28638.7
248.685
36.0181
20.6856
215.233
21228.1
67.5709
215.037
84358.1
7.77347
24462
97.3423
23163.2
388.236
3806.72
1418.36
127.094
63.3416
247.188
543.448
28602.2
653.772
63.5982
803.851
297.365
3248.78
122.678
407.625
31.1825
27.4009
29226.9
22512
217.317
215.153
152.617
170.786
252.773
411.28
18718.5
11.6948
497.465
16236.3
258.833
47472.4
185.194
209.906
1305.2
30061.7
449.633
38.0633
57.0097
7.77955
309.888
100.657
160.882
231.178
56.2457
424.483
33.608
59.9324
301.262
670.23
65.7118
104.632
735.444
12.5503
12.5188
199.863
103.382
42.2296
28363.2
104.424
87.2815
30112.4
438.227
680.009
26596.6
31922.5
309.397
610.459
9839.25
30009.7
605.081
28513.4
62927.6
341.461
36524.6
7.11084
279.477
10.0072
19.0049
218.49
3118.9
739.035
209.311
237.24
32054.2
236.744
10.4436
133.223
222.101
67.875
10.7032
269.426
99.573
12.9106
1063.87
21.2565
26175
26380.4
1615.94
17.8652
23739.9
23709.6
15020.5
28243.3
144.676
367.075
885.686
2263.02
34.3371
709.151
565.678
10.9997
130.911
115.858
26.3623
128.776
31.3133
154.447
28294.1
88.9835
145.711
41.5643
18326.9
501.898
165.35
40073.4
103.991
139.629
35.7344
81.3744
227.153
2716.22
139.301
28889
45902.9
28387
10.3232
5960.92
8.79259
8.62772
411.268
1165.18
112.736
323.782
462.137
133.893
27585.7
20.4694
574.637
11.1125
47879.5
39.971
477.12
9.32174
3214.06
131.664
55.0902
29059.1
42493.3
11.1807
28615.3
29.3898
54.8631
61.0442
311.437
362.377
69.8476
126.977
28257.3
46.7438
529.911
2905.35
334.223
23.7334
83.7498
2725.85
134.872
26648.2
270.202
625.29
25655.2
60.217
339.526
150.155
445.965
25745.2
24980.5
9.64202
16477
9.85121
54.0713
28627.5
336.426
479.553
1086.72
692.95
202.993
451.599
23576.6
5060.26
39.1631
294.034
156.823
188.958
5457.25
97.6318
71002.8
611.2
711.839
375.715
62.334
11.1603
115.6
9.87257
676.661
20507.8
120.552
236.18
36386.5
35.8281
20592.2
30816.1
24718.3
287.055
237.153
187.138
706.018
18091.4
1112.52
41.528
131.466
295.366
10744.6
177.243
256.367
95.595
29141.5
21391.9
512.919
216.227
117.841
25.1751
11.084
3495.65
12.9306
9.52254
52.2259
229.268
84.2738
438.674
3122.5
554.063
134.59
254.341
458.395
12.8418
268.892
1514.28
713.442
89.773
35.8029
2198.23
1325.72
23.9305
1364.14
52667.7
21354.7
382.754
18151.4
28106.8
169.829
7.33292
20742.5
335.936
35.2192
8.7921
27.0696
25849.9
20595.6
22064.4
248.705
65.2958
41.958
95.3803
135.174
12.3852
883.758
974.722
12989.3
25626.7
582.703
48.352
7.94328
22685.7
102.052
278.109
9.66677
27.4235
309.421
12177.6
14587.5
289.487
300.329
5757.23
644.064
245.162
28037.1
9.47544
331.407
21065.1
32092.1
1080.51
20835.6
591.866
19948.3
17.4955
10.6641
43.2552
77.8767
75.8954
29559.2
242.493
7.85046
97.8413
525.38
75.6639
12.2138
675.095
144.987
256.383
52.165
25680.8
380.096
46.7798
55.8351
675.877
8.84737
25476.3
31.6096
303.222
11.2687
232.902
3914.55
6.8199
24325.8
22540
30157.9
10.712
93.6937
58.3018
710.754
308.554
112.24
227.81
30047.5
11.7117
656.93
279.467
567.569
151.237
103.45
19806.1
213.775
54.7979
23.4142
218.781
71.8949
161.447
66.9591
10.1226
146.412
157.082
620.582
112.814
30758.3
614.063
26.3408
25.9967
114.501
19434.3
13457.9
26533.9
743.479
10449.6
118.889
265.303
18218.9
402.324
28107.9
795.802
75.6028
183.496
117.103
26842.1
135.412
117.564
31707.5
28902.1
649.235
28617.5
29.133
26512.7
646.082
13.998
333.123
1491.68
133.789
9418.22
43494.7
83.8967
1203.6
295.674
30537.2
242.433
63.7957
5644.18
4161.33
16228.1
30.9793
32339.7
26.0282
418.189
78.9163
10.2225
23.0741
23.471
1259.64
154.715
540.156
33648.5
384.276
24519.5
14769.1
12874.8
691.989
7437.41
1022.67
368.153
8.73136
40.9743
67.7907
21679.8
128.643
12.8613
8943.9
31356.3
715.054
164.969
1097.18
80.6416
68.4633
192.467
30.9468
250.499
65.6285
30917.8
572.83
251.296
256.115
13.1407
88.0032
8.7927
392.004
26190.4
5.87393
98.1077
656.412
22692
113.347
6.33102
26.208
437.066
687.097
260.486
347.764
117.735
223.336
31.8997
87.246
2325.67
608.309
269.332
744.064
227.142
27151.7
701.588
142.221
840.126
5131.55
28517.2
587.827
239.352
265.982
14.3672
73.9926
86202.9
38.243
133.707
24759.1
134.419
49.9723
68.3448
12337
27335.4
34375.7
26612
63513.5
68.946
18472.1
279.345
237.558
1582.43
25.936
1237.31
4000.03
845.879
26255.2
542.431
21.14
1425.37
132.263
302.185
235.868
27955.7
224.435
181.534
43.9468
488.14
543.584
249.234
26307.2
465.114
18041.5
267.438
9.17345
49026.1
12.7271
26400.9
40.2277
95.4559
38.4839
117.253
282.689
22.6072
254.366
46.5586
682.071
36.2345
37.5213
148.63
262.449
7.31353
26353.8
88.2967
160.574
25128.7
9.01267
46.5584
102.087
251.779
21815.9
1213.54
263.951
625.734
29909.6
4338.69
36.3053
180.211
650.119
1113.93
12.6321
73.997
29.0901
344.98
139.489
2347.9
21.9497
47.2633
107.449
63.0709
22178.7
215.221
14102.5
246.959
28202.3
10.2587
685.318
15732.7
625.978
10.3467
21547.4
24681.2
83.8914
11186.1
634.013
644.154
28823.7
186.253
2758.17
21.7524
348.013
23.0901
6.11588
75.9483
817.762
127.601
63.6149
28740.3
25437.2
391.373
261.035
14259.2
114.28
95030.8
10.1055
327.129
346.785
25.1966
31173.3
33.4019
3451.55
92.5271
156.198
313.144
778.111
40.444
155.687
12.0488
825.556
8.72798
1046.6
30407.8
28777.6
43.3452
33756.8
98.3316
958.379
164.988
8.05689
93.3014
1147.43
166.66
104.405
80.2847
128.303
23920.6
28704.2
392.589
23.7322
25987.9
120.196
597.128
15.0063
280.634
176.152
10.2582
12.0451
8.74216
32578.2
2987.79
351.725
235.703
59324.1
28.1177
890.952
308.177
111.062
854.265
67307.1
89.2966
7.09838
22687.8
1260.23
90592.2
15.5993
20178.1
20103.8
754.336
197.804
691.257
23634.3
67.6629
1165.26
30158.6
49.4648
32636.3
28815.6
89.8521
30539.8
92.457
25264.1
231.993
338.758
91.8083
123.585
685.221
6584.74
20019.5
579.16
42.0678
33930.5
112.885
32.6408
243.141
46.6113
30900.7
99.2314
11726.8
22446.2
287.202
288.191
195.084
1086.61
8.82963
26692.1
2918.08
127.915
27064.7
886.884
834.96
9455.34
100.901
142.103
812.999
21153.1
26285.1
171.581
29629.2
121.031
250.804
1334.18
17681.5
200.157
284.099
879.418
635.456
141.807
1742.35
114.221
19.3522
317.751
899.931
26487.5
29.3361
30219.2
146.761
37.7999
270.773
6.41641
792.395
91.139
221.039
3097.16
97.8934
126.937
18360.2
31.0734
39.1339
17750.5
146.33
207.806
529.653
754.524
31129.9
53533
177.993
12154.5
1209.28
339.86
27.0328
235.78
678.328
880.816
420.284
1748.72
21.7793
58.9046
8.14773
5376.47
9.58388
15061.9
77.6369
266.959
35.4582
23743.1
961.368
103.552
62.3448
40.5576
120.564
745.543
10.4705
19716.4
74.8642
354.479
230.685
11.8142
10708.3
227.408
29201.2
20817.4
360.558
10.4726
24.3013
449.988
9.89686
196.983
24402.7
636.771
166.927
1073.51
27255.4
26.5546
9.08456
33020.8
204.212
11.0611
1621.02
107.152
239.293
8.65347
639.073
22782
651.16
29054.2
44.3149
30270.5
396.548
649.976
25605.5
349.454
30272.4
1423.59
1615.12
27.1128
24.18
110.844
71.113
1043.66
5138.26
52380.1
26795
382.027
5991.63
8.67688
22713.9
213.21
295.972
341.642
1140.64
795.123
566.67
175.999
244.561
141.471
6.58793
28.3988
127.075
69.6612
26.7951
609.823
1719.76
449.905
560.29
19145.7
176.349
290.878
132.781
499.622
25046.8
3257.56
27.9619
13.109
626.959
389.705
72.4653
26058.7
617.326
217.21
318.451
266.824
37222.3
28045.7
95.1843
228.12
234.249
137.27
344.579
38.4498
14.2467
30742.6
15.7309
372.821
15801
344.081
1060.57
27067.7
172.772
21955.3
980.498
50.6844
13863.2
1986.11
309.951
27905.3
32.0918
30088.4
29329.5
24527.7
34.5004
44564.6
627.521
427.283
284.992
66.9455
27.6572
73438.6
62559.6
346.892
44.119
100.321
286.35
29630.2
2249.7
455.521
34094.3
20158.7
8.93404
1002.67
28365.8
17257.2
144.801
29660.5
937.575
274.895
115.437
26343.6
381.232
379.706
32868.1
109.846
517.414
28330.3
3325.82
323.875
31842.5
24.7859
25599.2
12.2472
1013.34
929.943
814.84
212.64
58.7238
182.458
182
445.582
199.682
13754.2
476.966
188.445
20407.7
90.5183
532.953
31.7316
627.21
1531.7
70.4287
18.3341
920.674
914.181
29.3273
350.726
144.901
380.648
465.594
6.15737
29.5355
33.8174
33171.9
615.784
936.339
251.861
14661.1
7803.99
43184.5
394.879
845.118
285.328
316.351
893.514
580.147
151.795
87.0996
20230.2
9940.38
104.823
1396.08
63.107
28250
11555.9
9.05696
119.103
2110.47
893.361
41362.5
310.788
173.401
102.225
119.881
41.9523
9082.21
58.3134
897.194
18504.4
269.61
575.544
15974.9
627.382
124.926
884.355
336.851
23128.9
52871.1
153.207
19103.3
55312.4
67896.5
9925.22
23552.6
99.9274
12107.1
130.862
467.658
8.42831
120.307
1199.72
599.813
347.955
127.201
6830.89
181.6
484.604
25.4967
16546.8
6895.75
115.263
29796
53.5508
25714.3
54308
80267
41.8882
1034.12
4421.43
65.144
164.519
261.803
28758.8
717.297
26625.7
22243.3
5.46192
7.89934
6.52833
6.76843
8.89648
10.2568
5.70297
7.34588
5.36711
222.397
18.652
10761.5
132.02
39.2844
10249.9
244.016
532.558
232.424
1000.4
1557.13
15917.7
338.044
686.177
14.3308
993.755
35.5872
611.908
832.48
907.412
871.643
100.166
969.796
21782.2
437.402
700.13
592.965
1735.12
88.9652
1341.66
331.904
6.30341
64.8383
11382.3
32748.4
15.4176
175.245
28.9586
46.4778
42.7157
37.7046
29.7613
17201.4
21393.7
13187.3
20852.5
636.574
14899.4
133.856
8.10923
258.435
441.306
378.121
5.72143
31.2676
435.729
14399.7
9.67917
219.096
6349.76
37.5102
947.984
79.3391
324.29
8.80532
1305.82
217.204
60.3227
26296.6
103.64
636.211
894.997
15.718
39.8385
280.007
16775.7
32097.1
26598.3
226.502
762.722
523.76
147.568
196.154
35.2992
661.87
50478.6
28788.6
178.043
124.544
21197.1
17494
8.24846
33183.6
20825.9
146.475
541.109
29171.7
21714.7
612.765
269.548
721.143
19910.6
1175.23
312.062
658.933
672.678
408.848
26582
1984.52
30.7074
26892
194.243
585.258
92.6878
2302.98
108.47
6.24143
335.533
618.397
969.957
182.547
28708.6
9.39746
23484.6
23026.9
8.79669
1625.78
21934
18727.5
25457.3
1135.89
48.1253
281.536
285.105
17.3413
144.384
767.578
1731.29
755.936
28122.5
11551.2
327.084
106.829
380.57
20689.9
688.619
19.5467
84.6411
284.792
1714.44
19098.4
286.154
364.78
360.267
609.212
10110.4
168.489
9.73495
19.6134
10.8615
28033.6
22973.7
399.843
1449.11
23979.2
1190.47
24300
229.797
13904.5
188.179
25965.4
1300.25
497.382
49098.5
8165.52
38067.9
141.957
371.211
264.782
41.6697
33.4932
184.724
358.843
101.758
289.634
618.606
644.259
349.798
3857.5
20184.4
31047.3
681.136
28541.6
35770.6
30068.9
243.306
22.3292
2753.19
25070
175.452
272.866
39.1241
189.735
64.9566
111.797
188.334
19299.3
24676.3
13516
1589.95
347.255
97.522
7.39218
29424.8
8408.2
41.2349
98.289
20848.5
197.954
2514.84
23970.9
18.0437
256.782
103.737
179.531
370.827
67.4725
1303.3
59.0575
30103.5
334.824
520.479
30411.7
751.465
19846.9
35201.5
38317.3
763.421
29300.4
91.4725
5875.64
24210
37.3501
755.894
24040.6
6860.37
8213.2
632.166
5105.61
104.059
947.644
70.1749
113.127
147.788
9.94963
446.74
183.584
42.2428
241.844
1212.08
228.916
1444.18
1164.92
178.272
45.0903
21.6423
33.4001
118.864
13.0988
23.1027
279.549
57.3311
624.788
2468.94
278.751
590.266
7365.51
138.389
264.001
30455.2
29554.7
1016.12
23.1726
403.925
702.589
12323.4
32.8666
435.294
50.7255
681.521
25.9035
832.741
813.063
56.5593
821.432
553.953
188.188
8.43255
43951
15534.9
123.945
1063.53
337.948
882.323
28433.2
324.748
21278.2
627.669
1045.71
130.041
139.805
32.0495
57048.7
913.5
20770.6
515.986
239.204
24903.7
654.728
10.7405
30019.9
231.452
24240
93.7677
64.7836
795.351
155.878
24460.2
104.871
27.407
10682.2
1260.39
559.368
7464.41
923.555
763.115
139.36
381.664
157.172
269.105
290.435
16264.6
14431.1
51689.6
28941.2
38.2096
72.9454
138.222
3616.3
11.1922
7926.74
7.9026
78540.6
584.022
50.7745
26.4649
345.127
87.5346
1219.95
19305.2
6087.59
342.713
13928.5
27251
139.736
758.122
692.657
209.086
11.021
578.464
42.7559
232.891
25499.8
22837.2
720.043
6449.52
89626.8
611.583
174.683
7.70904
258.054
2985.17
12748.5
122.868
308.321
155.877
328.046
775.309
29520.3
150.956
23833.2
694.594
262.239
522.366
59.8059
122.45
2269.46
61.4338
1097.1
23444.6
608.396
331.565
765.899
15291.4
88.2946
80.6076
462.622
366.958
105.034
882.828
1127.43
53.3888
22738.2
394.156
89180.7
39.8125
25585
3146.52
629.233
509.047
232.077
24064.1
862.103
21794.6
8.41241
301.364
565.592
265.812
38.751
605.664
331.718
149.816
24577.7
21897.7
232.029
31.2927
229.07
74.0642
283.733
22720.4
17.0415
633.644
23820.9
651.892
1047.05
10217.4
23658.7
97.0867
28672.6
440.867
30617.4
942.871
29.7263
87.3753
638.677
19994.3
297.38
725.284
695.892
957.376
597.045
244.546
13069.8
27270.8
305.065
104.543
236.076
291.505
13535.1
2365.66
21782.1
212.142
46.8148
780.818
9399.76
1766.85
103.55
93715.3
39.6236
798.523
33816.6
94.6862
4332.14
10113.4
416.351
8.15144
8.8457
7.72183
5.68885
10.0166
6.1469
8.60531
5.4409
6.72148
6.5002
7.23299
7.27926
5.40957
6.30825
2603.29
605.896
854.728
315.891
357.443
98.1875
92.8051
11.3606
23688.8
161.58
89185.5
49982.6
2049.83
22796.9
315.451
68.8127
648.447
2739.9
564.198
18232
11008.9
28.1773
60551.5
594.494