/*--------------------------------*- C++ -*----------------------------------*\
  =========                 |
  \\      /  F ield         | OpenFOAM: The Open Source CFD Toolbox
   \\    /   O peration     | Website:  https://openfoam.org
    \\  /    A nd           | Version:  8
     \\/     M anipulation  |
\*---------------------------------------------------------------------------*/
FoamFile
{
    version     2.0;
    format      ascii;
    class       volScalarField;
    location    "9e-05";
    object      rho;
}
// * * * * * * * * * * * * * * * * * * * * * * * * * * * * * * * * * * * * * //

dimensions      [1 -3 0 0 0 0 0];

internalField   nonuniform List<scalar> 
23640
(
7.44757e-05
0.000315762
9.58287e-06
0.0266799
0.000298755
0.000446371
0.000133958
0.000282081
0.000497876
0.0010198
0.0218156
0.000279422
0.000233089
0.000281087
0.000629309
0.000418324
4.22723e-05
0.014709
0.0183506
0.000529658
0.0210009
9.05485e-06
0.0208108
0.0210878
0.000358298
0.000182413
0.0027217
0.000666334
2.9574e-05
0.000323082
0.000195688
0.0666353
0.0210552
0.000359786
0.000641583
0.000670314
4.49306e-05
0.000119891
1.94585e-05
0.0233074
0.000447788
0.00049542
0.000328263
1.75961e-05
0.028828
0.00347815
7.39853e-05
0.000350782
0.00100008
0.000239328
0.0572816
0.0149573
0.000682621
9.98616e-05
0.0266679
0.000790408
0.000572757
0.000346528
0.000216975
0.033107
0.000190607
0.00358273
0.0243096
0.0155119
0.000270765
0.0154563
0.00036915
0.000346822
0.0133288
0.000313418
0.0243599
0.000355883
0.0188617
4.59916e-05
0.000392805
0.0667178
0.000867031
0.0002262
0.0185048
0.0238902
0.00409265
0.00114362
0.000370347
0.000368616
0.000254433
0.00102071
0.0148963
0.0226368
0.0194008
0.000656262
0.000166362
0.000352101
0.000736128
0.0188805
0.0145889
0.00031592
0.0158166
0.000718263
0.000449794
0.000735313
0.000915925
0.000100132
0.0209954
0.000104838
0.00069247
0.000110835
0.0270256
0.000110309
0.000256114
0.000457234
0.000173133
0.0189199
0.000348978
0.000480859
0.00267304
6.69508e-05
0.000628225
0.000162866
6.78436e-05
0.000335397
0.0212604
0.0372943
0.000660284
0.0494404
0.00122336
0.0224154
0.0600568
0.00147767
0.00045161
0.000510515
0.000958212
0.000832373
0.000242633
0.00174277
0.000111516
0.0225865
0.0216958
0.000355742
0.0216712
0.0164594
0.000457281
0.000566972
0.0186511
0.0218122
0.0186721
0.000428523
0.0224484
0.0232753
0.000185455
0.0142745
0.000225717
0.000436977
0.000323422
0.0247123
0.000773155
8.90871e-05
0.000134353
0.000331211
0.000345084
0.00268398
0.000644565
0.000763648
0.000650911
0.000340932
6.22281e-05
4.9763e-05
0.0255109
0.00253432
0.0270671
0.000826059
0.000348205
0.00248233
0.000378554
0.000244733
0.0253285
0.0254822
0.000511188
0.00255888
0.0239853
0.000355068
0.0286486
0.000948774
0.000357486
0.000543482
3.1578e-05
0.00849289
0.00120594
0.000771116
0.0343934
0.000587205
0.000497907
0.0221019
0.0375713
0.000323595
4.41815e-05
0.0231069
0.000704236
0.000554749
0.00130495
0.00193076
0.0199616
1.56107e-05
0.000125909
0.0005012
0.0192049
0.000169802
0.00138999
0.0208955
0.00177097
0.025525
0.000285327
0.000330192
0.000139892
0.000182347
0.000448704
0.00047235
0.000371555
0.000515912
0.000377002
1.4957e-05
0.000153195
0.0218477
0.0200277
0.000283882
0.0209705
0.000342906
0.000190833
0.0404868
1.5179e-05
0.000167496
8.11611e-05
4.49214e-05
0.000446794
0.000322583
0.000327912
0.00112457
0.0243005
0.000468515
0.000194281
0.00401739
0.000949321
0.00294538
0.000444123
0.00050023
0.0261577
9.18714e-05
0.000135258
0.000808081
0.0237818
0.022008
0.0331758
0.000276315
7.48622e-05
0.0254446
0.000184623
0.0232966
7.57416e-06
5.44485e-05
0.0276669
0.0274611
0.0282816
0.000169148
0.000851869
0.000262532
2.41743e-05
0.000327738
0.00197795
0.000421773
0.000178992
0.0142413
0.00078325
2.15045e-05
0.0212718
0.0335013
0.00143595
0.000350734
3.22293e-05
0.037721
0.0154894
0.000241061
0.0225305
2.04749e-05
0.00824821
0.0220673
0.000448025
0.00360294
0.000367331
0.000563673
0.000332039
0.0219665
0.000387389
3.97264e-05
0.000462568
0.00036847
0.0216086
0.000359809
0.000462737
4.87171e-05
0.000210551
5.04493e-05
0.00264797
0.0157434
0.0396442
0.000376215
0.021457
2.78703e-05
0.000890154
0.00253913
0.0274296
0.0188018
8.35106e-05
0.00124203
0.0253824
0.0185685
0.0198811
0.00186984
0.000773449
6.66277e-06
0.0148512
0.000436262
7.2464e-05
0.000340132
0.000658094
0.000643065
0.000110074
0.00117557
0.0415996
0.000397027
8.65289e-05
0.0693996
0.00834323
0.000298233
0.000550749
0.00084017
0.000616244
0.000384345
0.0010981
0.000780152
0.000347232
0.000207467
0.000984042
0.0174834
0.000753609
0.0438237
0.0224001
0.0140615
0.00292724
0.000269203
0.000327575
0.000441443
0.0273821
0.00110856
7.9211e-05
0.000161838
0.000645796
5.31682e-05
0.000146595
0.000145825
0.0244122
0.0219056
0.00116134
0.0211756
0.0163939
4.67143e-05
0.000459741
1.85884e-05
1.96892e-05
0.000813605
0.0184564
0.000320063
0.00185476
0.0172839
8.64666e-05
0.0199842
0.00120456
7.8971e-05
0.041992
1.04037e-05
0.000399093
0.00198903
0.0186816
0.0170809
0.00047034
0.017352
0.000472703
9.66754e-05
0.000719209
4.55805e-05
0.0231577
1.97312e-05
0.0134558
0.000494065
0.00090197
0.000683854
0.000748565
0.0219745
0.0410729
0.000120342
7.31442e-05
0.00258059
4.73133e-05
0.0256118
0.000564476
2.28341e-05
0.000238151
0.000191924
0.0286827
3.14411e-05
0.000663917
0.000359306
0.000548959
0.0237698
0.0261534
0.000511782
0.0224448
0.000420335
0.00339544
0.000258607
0.000568807
0.000425076
0.0274795
0.0136344
0.000211282
0.000539799
0.0011197
2.5743e-05
0.0462866
0.000663374
0.0212769
0.000270751
3.21815e-05
0.0300226
0.0253096
0.0207394
0.001259
0.0224448
0.00191762
0.000639076
0.00320395
0.0415692
0.000861535
0.0245653
0.000650387
0.000986533
0.00642653
0.000370302
0.00281087
0.000763665
0.0204918
0.000823065
0.0789194
0.000361525
0.0254847
0.000501123
0.0127291
0.000102662
0.000288091
0.000888783
0.0281081
0.000721891
0.000564839
0.000442475
0.000353685
0.0683692
0.000649467
0.000335093
0.000673982
0.000717347
0.000872864
0.000498225
0.000910302
0.000355505
0.0282886
1.46615e-05
5.84321e-05
0.0037355
0.000423964
0.0739232
0.00120872
0.0607612
0.000391611
2.55832e-05
0.000537691
0.000959265
0.000613495
0.00169487
0.0211674
1.70059e-05
0.000206387
6.67346e-05
0.00188438
0.0636571
0.000211113
0.021814
0.000395574
0.000190534
0.000745094
0.00792671
0.00219684
0.000132963
0.000308733
0.0232055
2.3811e-05
0.000415278
0.000349678
0.000191052
0.00074914
6.3729e-05
3.86416e-05
0.000231904
0.00369429
7.05348e-05
0.000788037
0.000917263
0.0205196
0.000280135
0.000343653
4.054e-05
0.00050363
0.0224271
0.000550337
0.0123556
0.079615
0.00062291
0.000323515
0.000353192
0.0202417
0.000567771
0.0187849
0.000266961
0.000203042
0.0210548
0.0013754
0.000534868
0.00077214
0.000264783
0.000694824
0.000839371
0.00010548
0.000596831
0.00030056
0.000345925
0.000405913
0.000208209
7.10854e-05
0.000357757
0.000624827
0.0189907
0.000319284
0.000328034
0.00360943
0.000322683
0.000778522
1.4664e-05
0.00303115
0.000266949
0.000386836
0.0031495
0.0216156
0.0252369
0.00015229
0.0228012
0.000409124
0.00198136
0.0170308
0.020721
0.000390489
0.0196505
0.00288938
0.000722273
0.0776375
0.000284219
0.000393717
0.000101415
0.000154272
0.0184197
0.000669241
0.00102425
0.000772359
6.44915e-05
0.0300049
0.000712664
0.000146405
0.000574435
0.0186903
0.0196744
0.0002851
0.000779627
0.000179232
0.0196907
0.0238929
0.000344887
0.000477652
0.000512441
0.000192755
0.015082
0.000495392
0.00177537
0.00036162
0.000860476
0.0223682
0.0206146
0.0280847
0.001324
0.000322873
0.000980631
0.000739861
6.22364e-05
0.000296812
0.0201738
0.000324702
0.000228524
0.000276798
0.000425769
0.000472669
0.000736019
0.000711956
0.000472571
6.55781e-05
0.0503513
0.0190958
0.000464532
0.000434863
0.0239601
0.00032127
0.0145271
0.000382385
0.0201509
0.000318165
0.000650679
1.94053e-05
0.000400987
3.52524e-05
0.000356247
1.38765e-05
0.0276085
0.000316705
0.000401981
0.000120812
0.000643227
0.000503266
0.000670083
0.0228954
0.000235255
0.000924076
0.000713419
0.0200501
0.00168459
9.43628e-05
0.0002726
0.000708285
0.0406441
0.0186475
0.000180608
0.000509585
0.0394178
0.00210839
0.0212402
0.000242219
0.000177641
0.00052675
0.00288657
6.72272e-05
0.00123878
8.08165e-06
5.49092e-06
8.70955e-05
0.0425606
0.0191156
0.000430892
0.0397582
0.000467569
0.000194006
0.000661953
0.0157917
5.69167e-05
0.000271961
0.000323787
7.29794e-05
0.0232785
0.0349454
0.00067254
0.00039026
1.92371e-05
0.000313757
9.357e-05
0.0281157
0.000404385
0.00388435
0.0440693
2.8346e-05
0.0009791
0.0123977
0.000270638
0.0120835
3.58678e-05
0.000553177
0.000604575
0.0222539
0.000341714
0.0689926
0.0155685
0.000414682
0.0213759
0.000117716
0.000455319
0.0232253
0.000738846
0.0236255
0.000752955
0.0190151
0.0226107
0.0016597
1.74903e-05
7.05223e-06
0.000646449
0.000504479
0.000291481
0.0206284
0.000641134
0.000733963
0.00359988
0.000776693
1.89279e-05
0.000731508
8.49965e-06
2.39059e-05
6.96733e-05
0.000597629
0.0258816
0.000645184
0.000131669
0.0235009
0.0227347
8.4692e-05
0.000328369
0.000646885
0.000425003
0.0235606
0.000667783
0.000299371
0.000307092
0.0236126
0.00147598
0.000101315
0.00962005
0.000142237
0.0156876
5.94826e-05
0.000292879
0.00943476
1.98176e-05
0.000574611
0.000262334
0.000508577
0.0737543
0.00188809
0.000120327
0.0145373
0.0238911
0.00015595
0.000249063
0.0118752
0.000490105
0.0277765
0.000708927
0.0223956
0.000402954
0.0175266
0.000712306
0.000574534
0.000461049
0.00316115
0.000363031
0.0198474
0.000240428
0.0262032
0.000597935
0.0128721
0.00131492
0.000793757
0.0523521
9.84419e-06
0.00133565
0.000688453
0.0608133
0.00160743
8.05389e-05
0.000529929
0.000356898
1.51558e-05
0.000651343
0.0182483
0.000324037
2.16111e-05
0.0220851
0.000285876
0.0240496
5.34424e-05
0.0233808
0.000485558
0.000603514
0.000394522
0.000173849
0.000827538
0.0373428
0.000296842
0.0186737
0.0231604
0.000278745
0.000763521
0.0207316
0.000315328
0.0290049
0.000948242
0.000556039
0.000132251
0.0156758
0.00063868
0.000260958
0.000642572
0.000719353
0.01796
0.000701764
0.000623064
0.0233711
0.00100016
0.000149477
0.000778055
0.0120955
0.000276158
0.00188148
0.000118953
0.0157791
0.000354139
0.000577266
0.000418117
0.00672713
9.69142e-06
0.000246162
0.0158574
0.000490038
0.0212471
0.000437502
8.37042e-05
9.56884e-05
0.0247739
0.000274822
0.0237318
0.000310862
0.000377111
0.000236292
0.000649649
0.000120586
0.0178811
0.0778169
0.000399826
0.000906245
0.000499026
0.00095282
0.000736022
7.78336e-05
0.000341761
0.0271198
0.00366684
0.000230223
0.0211667
0.000120945
0.0306964
0.000640632
0.00132331
0.0237095
0.0244266
0.0214682
0.0674671
2.93065e-05
0.0373142
0.00467962
0.000109775
1.98157e-05
0.00078088
0.000323602
0.0157862
0.000200895
0.00153624
0.000540563
0.0239086
0.000956731
0.0279224
0.00013464
1.06291e-05
0.00168483
0.000273278
0.000661684
0.0235946
0.00072561
0.000874408
0.000304751
1.34136e-05
0.0207503
0.0198079
0.00159219
0.000357796
0.000201503
0.0121627
1.02118e-05
0.000961713
0.000286812
0.00047111
8.43239e-05
0.00175764
1.99082e-05
0.00107102
0.000756556
0.0423023
0.000320394
0.00449816
0.0265022
0.0195112
0.023103
0.000498568
0.0176873
0.000333366
0.0232562
2.63512e-05
0.00065528
3.90793e-05
0.000627535
0.000756077
0.0669981
0.0156985
0.0188489
7.15622e-06
0.000582539
0.0285355
0.00119071
0.000664574
0.000252349
0.000468328
0.0234508
0.000831355
1.95827e-05
0.00125616
0.000459523
0.0231528
0.00065133
0.0235084
0.012832
8.75041e-05
0.000160874
0.000500853
0.0217659
9.67755e-05
0.000641865
0.000271907
0.000324032
0.0265289
1.38788e-05
0.000315901
9.60585e-05
0.000755008
0.000147876
0.0192477
8.53349e-05
0.000273067
0.000294461
0.000330526
0.0384367
0.00026649
0.000185273
0.0207133
7.10928e-05
0.0220222
0.000602967
0.000682001
0.000234555
0.000555637
0.000677624
0.000430953
0.0241786
0.000702033
0.000273437
0.000265746
0.000347515
0.000183989
0.0189338
1.54857e-05
0.000246805
0.022553
0.01828
8.18283e-05
0.0275057
0.000372993
0.000524537
0.0238086
0.000564292
0.037752
0.000212886
0.000475412
0.000556646
0.000529184
8.89154e-05
0.0130519
0.000590942
0.000614454
0.00330237
0.00132261
8.88987e-05
0.00104891
0.000653586
2.24892e-05
0.000355496
0.000123963
0.000132075
0.0218924
0.000559727
0.000175833
0.000143233
0.000409532
0.000715296
0.0187827
0.0384917
1.68291e-05
0.0223564
0.000740016
2.83554e-05
0.000288314
0.0277268
0.0160686
0.000240433
0.0173115
0.000709313
0.000264784
0.000429297
0.000120163
0.000397564
0.000250243
0.00062968
0.000449989
7.32909e-05
9.69476e-05
0.0234142
0.0178306
0.000134633
0.000123258
0.0026482
0.0006016
0.00376793
0.0310312
0.00075894
0.000470195
0.000262321
0.0296892
0.0221965
0.0190171
0.00034013
0.0144652
0.000321019
0.00065541
0.000461568
0.000407758
0.0207058
4.46175e-05
0.0239104
0.000185978
7.4798e-05
1.40244e-05
0.00214156
0.0079237
0.000510292
0.0252606
1.82729e-05
0.000915538
0.00529292
0.00412304
0.000340847
0.00163581
0.000194401
0.000275734
0.0221955
0.000228702
0.0006961
0.000720303
0.0060908
0.000710201
0.000645279
0.00086379
0.0187847
0.0255142
0.000532312
0.0006146
0.000348516
0.000319275
0.000716715
0.00270764
0.000354212
0.000247455
6.17279e-05
0.000619671
0.000178474
0.000478947
1.11747e-05
1.3483e-05
0.0256814
3.58667e-05
0.000638437
0.0213748
4.05028e-05
0.000523663
0.0042477
0.0183757
0.000409145
0.000200058
0.000199326
0.000313857
0.000432652
0.00222951
0.00907353
0.00119623
0.000938554
0.0256582
0.00022834
7.01149e-05
3.1259e-05
5.66595e-05
0.0416681
0.000348627
0.000400101
0.00034968
0.0286983
0.0191137
0.000750785
0.000747342
0.0255991
0.0677623
0.000100812
1.82674e-05
0.000387521
0.00106734
2.76728e-05
0.0155811
0.00081532
6.25407e-05
0.0221481
0.000376132
0.00159583
0.0256364
0.0303848
3.0115e-05
0.00535252
0.000595179
0.000121685
0.000401679
0.000181828
0.000367677
6.53878e-05
0.00737058
0.016172
0.000960019
0.0213831
0.000422112
0.000981255
0.0157912
0.000131527
0.00100478
0.000713234
0.0176162
0.019364
0.000502609
0.00453606
0.000484284
0.000875144
0.000761349
0.000768229
0.000839108
0.000756243
0.000343495
0.0192314
0.000518011
0.000342631
6.30244e-05
0.0184205
0.0193986
3.92956e-05
3.92955e-05
0.0198901
0.00418605
5.58077e-05
0.0215787
0.000285566
0.0170897
0.000323331
0.000345066
0.000384039
0.000428355
0.000269587
3.9329e-05
0.0771667
0.000282782
0.0223788
0.000318156
0.000489639
0.0224201
0.000291019
9.74068e-05
0.000939303
0.00101748
0.0222051
0.000821432
0.0221687
2.53082e-05
0.000291865
0.000639136
0.000383225
7.38117e-05
0.000296559
0.000202881
0.00950521
0.000247558
1.10301e-05
0.000355665
0.00110186
0.000340051
0.01357
0.0216869
0.0006138
0.0235152
0.00937861
0.0286044
0.000702695
0.000622189
0.000299958
0.0174981
0.000344228
5.62712e-06
0.000177223
0.000472824
0.000148467
1.30957e-05
0.00043943
0.000246739
0.000719285
0.000385406
0.0272821
0.000507971
1.72294e-05
0.000428422
0.0151821
0.000360586
0.00103066
0.0673689
0.000653977
0.00056131
0.000112081
0.00106234
0.00118261
0.000167084
7.35109e-05
0.000164226
0.000550661
0.0224303
0.00044234
0.0171488
0.00461224
0.000943103
0.000347879
0.000208456
9.4296e-06
2.80778e-05
0.000388793
0.0244811
1.64839e-05
0.000651854
7.29711e-06
0.000423087
0.0233941
0.00645791
0.0224712
0.000455574
0.00032178
0.000507578
0.0140855
0.000513798
0.0211319
0.000598355
0.000259729
6.29716e-05
0.000213294
0.000627191
0.000507703
0.000456903
0.00061023
0.000932464
0.000339822
0.000792125
0.00158281
0.0182922
0.000279751
0.000115792
0.000461512
0.000255591
0.000164857
0.00177033
0.000189507
0.000161487
0.000216867
0.0772762
0.000852407
0.000413953
0.000626731
0.0183199
0.0216844
0.0232054
0.000405619
0.00106076
0.000914566
0.0199449
0.000211711
0.00035067
5.87761e-05
0.000552812
2.20646e-05
0.000102471
0.000650566
5.95899e-05
0.000631076
2.80053e-05
0.0232674
0.00360246
0.00068177
0.000343369
0.000400138
0.000391578
0.000515609
0.0266619
0.000404686
0.00248305
0.000416176
0.0241233
0.024664
7.91029e-05
1.97731e-05
0.000291974
1.41872e-05
0.000120183
0.0007428
0.000800006
0.0211838
0.00105346
0.0251499
0.000985065
0.000360795
0.000167141
0.000694388
0.000420398
0.070893
0.0243625
0.00054426
0.00181496
0.000899697
0.000692795
0.0188837
0.000232929
0.000152038
0.000570357
2.17626e-05
0.0667354
0.000442989
0.0265563
0.000148229
9.28648e-05
2.96418e-05
0.000650632
0.000310779
0.000660514
0.000863741
0.0183509
0.0244051
1.06963e-05
2.38813e-05
0.000515053
0.000397369
0.000175108
0.00330852
0.000795295
0.00249143
0.000549379
0.00207035
0.0227356
0.00265856
0.000211853
9.66727e-05
0.000441775
0.000714046
0.0018178
0.000251595
0.000719343
0.00287817
0.000439365
0.00395284
0.000622269
2.59062e-05
0.000301678
0.0200411
0.014559
0.0197061
2.14122e-05
0.0224591
0.0144865
0.000619813
0.000688671
8.14535e-05
0.000663644
2.14845e-05
0.0234067
0.00027798
0.000112706
0.000214344
0.000699805
0.000340059
0.0221171
0.000427449
0.00178295
0.0250453
0.000377192
0.000303846
0.000552053
0.000561706
0.00038054
0.000740919
0.000231928
0.000332647
0.000151435
0.00076771
0.000168848
1.20286e-05
0.000664188
0.000147042
0.0196152
4.47668e-05
0.000346219
0.000277789
0.000695215
0.000332326
7.02368e-05
1.62004e-05
1.25822e-05
0.000314977
0.0202177
0.000648442
0.000228617
0.0356768
0.000236681
0.000418078
0.000132355
0.000738386
0.0130703
0.000769879
0.0288542
0.0364054
0.000256043
6.80275e-06
0.0681482
0.000207578
0.000569562
0.00120411
0.024255
0.000309158
0.000739609
0.000664577
0.000681238
0.000460076
0.000649473
0.000801928
0.0307247
0.0185433
0.000198038
0.0140834
0.0168122
1.62363e-05
0.000794075
0.0169017
0.022755
0.0239688
0.000635127
0.000152258
0.0378036
0.000421261
0.000763341
0.00019154
0.0157435
0.0215309
0.000149421
0.000155643
0.00015131
0.000185665
0.0152546
0.000174471
0.000323187
0.000647499
0.02492
0.00162635
0.00026052
0.0244458
0.028912
0.025241
0.034528
2.55368e-05
0.000719528
0.0199392
0.0215005
0.000411067
0.000857124
0.000152385
0.000321273
0.0159022
0.000962849
0.0016726
0.0186718
0.000157206
0.0262442
0.0305727
0.0255144
0.0778628
0.00013046
0.000305876
0.000606769
0.000416034
0.00719759
0.00588251
3.16879e-05
1.48849e-05
0.00107461
0.000510611
0.000333223
0.001525
0.000301499
0.0245493
0.000286298
0.000462699
0.000559272
2.06026e-05
0.000943982
0.0225101
0.000135069
8.57587e-05
0.0406617
0.0256054
0.000519671
0.00025461
0.0003406
0.000975138
0.000358378
7.71887e-05
0.000657697
0.000660358
0.0226982
0.0604018
0.026767
0.000333288
0.000641539
0.000656607
0.0452713
0.000345319
0.000724601
0.00049405
0.0181629
0.000504113
0.0235547
0.0176024
0.0011786
0.000520862
0.000156985
6.88247e-06
0.0204641
0.000484159
0.000371217
0.0774442
0.000179271
0.000364439
0.000734221
0.0279922
0.000375146
0.000394221
0.0177639
0.00026582
0.00326108
0.00024835
0.0195268
0.000794287
0.0258165
0.000575128
0.000502993
0.000600002
0.000287496
0.0148833
0.0006497
0.000188735
0.000765286
0.0013363
0.000657935
0.0231538
0.00135192
0.015478
0.000617997
0.000859991
0.000371124
0.000561957
0.00243662
5.9406e-05
0.000755392
0.0395381
0.0146511
0.00185787
0.0243951
4.95133e-05
0.00182502
0.000215482
0.00797385
0.000232002
0.000897677
0.0245565
0.0244566
0.000197336
0.000769859
0.0238391
2.17359e-05
0.000578559
0.000350189
0.000389502
0.000634485
2.76908e-05
0.00019778
0.000485309
0.0204531
0.000783688
0.00138521
0.0232187
0.00120425
2.05933e-05
0.000771486
0.000277543
0.000575512
0.0664682
0.000951534
0.0265623
0.0386233
0.000596764
0.000223046
0.000241901
0.0251453
6.8359e-05
0.000283102
0.000437754
0.000561744
0.0239362
3.50708e-05
0.000475473
0.000641031
0.026978
0.0241914
0.000587881
0.0223789
3.50478e-05
0.000251978
0.0248306
0.0169157
0.000546265
0.0427634
2.9288e-05
1.47652e-05
7.14019e-05
0.00271584
0.000588902
6.58617e-05
0.0176053
0.000288385
0.0413009
0.000107391
4.87228e-05
0.000325063
2.84429e-05
0.0677655
0.0690106
0.000264965
0.0179653
0.000340796
0.000451234
0.0247877
0.00038338
0.00171158
0.000387277
0.000583178
0.000135829
0.000576058
1.8859e-05
0.0192449
0.000316093
3.01865e-05
0.00117382
0.000392951
0.000219317
0.000640046
3.1154e-05
0.0231696
0.000112166
0.0434276
0.00050552
0.000258865
0.0234873
0.0243194
0.0199258
0.000649501
0.0205713
0.0193279
0.000468224
0.000548852
0.0781743
0.0235429
1.30376e-05
0.000225223
0.020474
0.0215113
0.000441154
0.0240051
0.0213072
0.0273023
0.0236984
4.05674e-05
1.48168e-05
0.00085455
0.000424144
0.00150021
0.00208861
0.0198203
0.00068421
0.0207777
6.80532e-05
3.21806e-05
0.000291825
0.0169672
0.0225414
0.00048276
0.00019713
0.0215503
0.000277184
0.000716095
0.000927033
5.15176e-05
0.0455715
0.000251837
0.0237887
0.00250708
0.00075598
0.0123947
0.000725077
0.000910946
0.00034198
0.0739571
0.000461151
0.00907424
0.000298707
7.73065e-05
0.000583531
0.0269211
0.0259617
4.63489e-05
0.000498265
0.0151271
0.000308076
0.00099515
0.0237697
0.012303
0.013582
0.000791279
1.9505e-05
0.0192058
0.00570369
0.02347
0.000430819
0.0284045
0.0151338
0.000218818
7.69338e-06
0.000267133
0.00165555
0.0242889
0.000708403
0.0140108
0.000531662
0.000467228
0.000384584
0.00273105
0.000334564
0.000787539
0.000354604
0.00050172
0.000533675
0.0202777
0.000972735
0.000462211
0.0235912
0.000284485
0.000486645
0.0183876
0.00114027
0.000582692
0.000217062
0.000339109
0.000582309
0.00013544
8.68136e-05
0.000396439
0.0336206
0.00118379
4.93971e-05
0.00055449
0.000239094
0.000470711
0.000385994
0.0124396
0.00354988
0.000443453
9.83031e-05
1.93609e-05
0.0318702
0.000574474
0.000245294
0.000338578
0.0178012
0.000123492
0.0232506
0.0239643
1.95541e-05
0.022608
0.0266862
0.000108864
0.000208521
0.0227529
0.000477286
0.00028212
1.87676e-05
2.22337e-05
1.03778e-05
1.36468e-05
1.11553e-05
1.17884e-05
2.04465e-05
1.56674e-05
1.74761e-05
0.000426727
0.00184282
9.86903e-05
4.36361e-05
0.0157849
0.000110625
0.0777546
0.000140238
3.10509e-05
0.000379197
1.81455e-05
0.0195613
0.000121746
0.000692151
0.000142844
0.000546142
0.000593697
6.60834e-05
0.0233417
0.000379985
0.000375239
0.000817679
0.000818782
0.00395891
0.000368896
0.000420262
1.21073e-05
0.000799942
0.000341301
0.019992
0.000877356
0.00164967
0.0247568
0.000276291
0.000321842
0.000251344
1.93027e-05
9.51713e-05
0.000253281
0.000616074
0.000104019
0.000112174
0.0233001
0.000683206
0.0618862
0.00045222
0.0141822
0.0257986
0.000307994
0.0529661
0.0012453
0.000524434
1.31052e-05
0.00227002
9.366e-05
0.0197174
0.0246056
0.000309778
0.00034967
0.000336333
0.000201955
0.0271676
0.0172288
0.000701977
0.000487421
0.017933
0.000451131
3.14795e-05
0.0207861
0.000126304
0.0010698
0.000560541
0.000740717
0.00118447
0.020416
0.000294946
0.000974154
0.00057702
0.000375457
0.0124302
0.000761489
0.0229337
0.0323343
0.020187
0.0216731
0.000529396
2.36497e-05
0.000394507
0.0231833
0.000622425
0.000665188
0.00032099
0.000340984
0.00390629
1.52385e-05
3.93425e-05
0.000350924
0.0156411
0.00289737
0.000341907
0.0180271
0.074198
0.000209764
0.00203538
0.022723
0.0256678
0.0182844
3.43204e-05
0.0273389
0.000620687
0.00072222
0.0158398
0.0248042
0.000123838
0.000125692
0.000285864
8.67593e-06
0.000357802
0.000553658
5.61734e-05
0.00016793
0.00103546
0.0215018
0.000862665
0.00123341
0.00262545
0.000131777
0.000561217
0.000201768
0.000475342
0.0242261
0.000686344
0.00085012
0.000543271
0.000636903
0.00060956
0.000828658
0.000609674
0.0196082
0.000175707
0.00045434
0.000139496
0.000114407
0.00182601
0.00202233
0.0205746
0.0168969
0.0709831
0.000263718
0.023757
0.00018655
0.000624633
0.000207128
0.000136239
0.000271416
0.000259682
0.0127688
0.000431446
0.0148573
0.000608772
0.000714487
0.000483325
0.000751253
0.0237317
0.000709445
0.000426702
5.98864e-05
0.000812406
0.00529349
0.000813082
0.000307346
0.000791052
0.000542168
0.000466112
0.000610483
0.0251089
0.000592347
0.000319459
0.0244218
0.0251153
0.000504454
0.000618194
0.0193928
0.00204145
0.00228348
0.0235015
0.0183393
0.0102805
1.92604e-05
0.00071411
1.01346e-05
0.0212963
9.60785e-05
0.000517247
0.000852924
0.00109346
0.000704823
0.00757706
0.000395074
0.000942818
0.0247594
0.000701082
0.0180642
0.000559983
0.018799
0.0178774
0.000369403
0.000224475
0.000212233
0.00131757
7.97537e-05
6.80071e-05
0.000269493
0.000248643
0.00091733
0.00242009
0.000128458
0.000194742
0.00060249
0.000482645
2.20853e-05
0.000591884
0.000392175
0.000349119
0.0149035
0.022998
0.000558493
0.00110646
0.0114126
0.0245678
0.000680811
0.014609
0.000439936
0.00051998
0.018152
0.0247158
0.066368
0.000199685
0.00229549
0.02137
0.000891478
0.0168888
0.014188
0.000733184
0.000112638
0.000147194
0.000161185
0.000848801
0.000486181
2.73938e-05
9.00444e-05
0.0270523
0.0256005
0.000323694
0.022783
0.000490988
0.00027376
0.00325908
0.000603364
0.000659018
0.0245062
0.000474609
0.000731287
0.000211541
0.000207457
0.0443471
0.000658317
0.0225015
0.0244547
0.000456931
0.000109963
4.95817e-05
0.000502875
0.0188874
0.00020992
0.000504104
0.069639
9.55192e-06
0.0213229
0.00027838
0.0203536
0.000426933
0.00480926
0.00208316
0.000305152
0.000204703
0.000503889
0.000580871
0.0243725
0.00076106
0.000205118
0.00129565
0.000557558
0.00427525
0.000327739
0.000713494
5.90379e-05
7.34686e-05
0.0248506
0.0198303
0.000482712
0.000503578
0.000356823
0.000381983
0.000449672
0.000442484
0.0171209
3.6128e-05
0.000773162
0.015297
0.000545837
0.0399078
0.000419824
0.000462295
0.00137838
0.0255075
0.000747497
0.000122134
0.00018925
2.09683e-05
0.000664171
0.000212575
0.000372735
0.000508429
0.000168592
0.000663646
0.000116562
0.000197162
0.000351936
0.000688538
0.00021057
0.000258224
0.00081649
3.62524e-05
3.88294e-05
0.000448676
0.000261517
0.000129476
0.0242325
0.000276862
0.000254231
0.0255332
0.000851806
0.000728807
0.0227986
0.0270601
0.000661405
0.00068294
0.0102361
0.0254661
0.000596817
0.0243645
0.0520339
0.000709453
0.0309394
1.24142e-05
0.000518988
1.84993e-05
4.5834e-05
0.000509362
0.00407147
0.00075627
0.000460082
0.000516646
0.0271784
0.000438897
3.21319e-05
0.000350965
0.000477328
0.00017791
1.21963e-05
0.00057678
0.000270326
3.99996e-05
0.00143349
6.6419e-05
0.0225686
0.0226693
0.00193933
5.27212e-05
0.020745
0.0206376
0.0143716
0.0241603
0.000338821
0.000580404
0.00104247
0.00316019
0.000107631
0.00126005
0.000606721
1.24978e-05
0.000319326
0.000313376
9.4442e-05
0.000303707
9.4739e-05
0.000361696
0.0240947
0.000221055
0.00031627
0.000128697
0.0164672
0.000557641
0.000375512
0.0340224
0.000257549
0.000338914
9.87483e-05
0.000200564
0.000277704
0.00360349
0.000318765
0.0245548
0.0387031
0.0241673
3.31098e-05
0.00684574
2.46678e-05
2.1718e-05
0.000687721
0.00122189
0.000305964
0.00059996
0.000489916
0.000334341
0.0236372
5.02046e-05
0.000846683
3.5454e-05
0.0402683
0.000124717
0.000585278
2.8438e-05
0.00424706
0.000314052
0.000152921
0.0246973
0.0359086
1.11495e-05
0.0243335
8.10943e-05
0.000153519
0.000199549
0.00058521
0.000421185
0.000182247
0.000319174
0.024105
0.00013957
0.000594566
0.00365461
0.000443599
4.07936e-05
0.000212826
0.00334485
0.00032039
0.0228387
0.000596873
0.000628477
0.0222023
0.000197819
0.000572161
0.000350203
0.000815515
0.0222719
0.0216064
3.10261e-05
0.0154456
2.77585e-05
0.00016253
0.0244487
0.000688445
0.000582894
0.00111595
0.000738856
0.000443228
0.000757819
0.0205088
0.00600229
0.000130651
0.000344311
0.000359514
0.000412428
0.00636419
0.0002797
0.0599318
0.00111766
0.000713793
0.00061816
0.000161891
1.17329e-05
0.00030184
2.07741e-05
0.000695435
0.0183429
0.000307315
0.000516698
0.030854
0.00012083
0.0184364
0.0261226
0.0214484
0.00059663
0.000432454
0.000378171
0.000730073
0.0166616
0.0011609
0.000137754
0.000346706
0.000388154
0.0109888
0.000435893
0.000573889
0.000274979
0.0247626
0.0190186
0.000530058
0.000411139
0.000285853
6.4977e-05
1.38535e-05
0.00454155
4.04133e-05
1.19125e-05
0.000175595
0.000286855
0.000166539
0.000802387
0.00415671
0.00084584
0.000319171
0.000296189
0.000715425
3.69365e-05
0.000572842
0.00221017
0.00102164
0.000214763
0.000110979
0.00312573
0.00143425
6.71432e-05
0.00150804
0.0440893
0.0190153
0.000620838
0.0166029
0.0239764
0.000392217
2.0417e-05
0.0185148
0.000368503
0.000108133
2.62863e-05
9.01431e-05
0.0223503
0.0184927
0.0195143
0.000470141
0.000209331
0.000133054
0.000237691
0.000354322
3.61207e-05
0.00150373
0.001522
0.0128116
0.0220859
0.000767804
0.000162405
9.23484e-06
0.0200018
0.00025364
0.000611531
2.82072e-05
8.97104e-05
0.000472327
0.0121665
0.0140214
0.000403953
0.00045067
0.00666165
0.00071077
0.000282222
0.0238963
2.71125e-05
0.000373427
0.0187683
0.0272034
0.00119451
0.0185796
0.000591054
0.0180027
5.36141e-05
3.35151e-05
0.000152791
0.000201186
0.000196855
0.0251151
0.000449467
1.0603e-05
0.000279024
0.000785213
0.000190773
3.77684e-05
0.000794374
0.000340779
0.000538376
0.000103843
0.022226
0.000414926
0.000158714
0.000155733
0.00070839
1.94423e-05
0.0219809
9.58324e-05
0.000608971
1.43192e-05
0.000470755
0.00483909
1.54634e-05
0.0211431
0.0198456
0.0255744
1.63712e-05
0.000267074
0.000157583
0.000711304
0.000531939
0.000294738
0.000465622
0.0254805
3.71408e-05
0.0008624
0.000419264
0.00079558
0.000349231
0.000184614
0.0179118
0.000418988
0.000162944
6.56026e-05
0.000484407
0.000202408
0.000259378
0.000185538
2.84323e-05
0.000358674
0.000365136
0.000619466
0.000295177
0.0260743
0.00060642
4.92673e-05
6.98705e-05
0.000257024
0.0175745
0.013186
0.0227619
0.00103759
0.0107453
0.000300894
0.00058394
0.0167484
0.000680646
0.0239381
0.000801835
0.000233936
0.000230121
0.000278072
0.0230911
0.000320934
0.000285845
0.0268726
0.0245543
0.000706606
0.0243877
9.02238e-05
0.0227427
0.000734871
3.51086e-05
0.00038176
0.00175548
0.000325809
0.00994926
0.0367505
0.000204151
0.00191447
0.000545674
0.0258918
0.000511957
0.00020607
0.0065676
0.00517482
0.015328
4.47105e-05
0.0274122
7.52739e-05
0.000736839
0.00023879
1.89128e-05
6.73484e-05
6.84549e-05
0.0017475
0.000360385
0.000765003
0.0285223
0.00053648
0.0212913
0.0142204
0.0127278
0.00122331
0.00823716
0.00138116
0.00059998
2.00137e-05
0.000143332
0.000179939
0.0192652
0.000304751
1.61743e-05
0.00956686
0.0265982
0.00126887
0.000392573
0.00127666
0.000207683
0.00021615
0.000463836
9.11739e-05
0.000446801
0.000171839
0.026226
0.000757852
0.000537191
0.000459966
1.80159e-05
0.000223013
2.59254e-05
0.000634026
0.0225719
1.71474e-05
0.000278751
0.000690193
0.0200117
0.000296752
1.53888e-05