/*--------------------------------*- C++ -*----------------------------------*\
  =========                 |
  \\      /  F ield         | OpenFOAM: The Open Source CFD Toolbox
   \\    /   O peration     | Website:  https://openfoam.org
    \\  /    A nd           | Version:  8
     \\/     M anipulation  |
\*---------------------------------------------------------------------------*/
FoamFile
{
    version     2.0;
    format      ascii;
    class       volScalarField;
    location    "9e-05";
    object      T;
}
// * * * * * * * * * * * * * * * * * * * * * * * * * * * * * * * * * * * * * //

dimensions      [0 0 0 1 0 0 0];

internalField   nonuniform List<scalar> 
23640
(
101.306
93.95
262.572
286.031
93.9192
218.012
81.2703
144.625
131.376
195.948
280.586
101.785
79.1447
92.7724
238.166
217.815
91.9631
253.981
271.008
113.105
277.98
215.556
277.613
278.474
105.134
92.1558
164.254
116.764
78.735
96.9756
73.5725
299.538
278.072
106.212
123.761
238.937
92.7198
70.6705
177.204
282.093
119.326
134.628
98.4439
164.347
285.9
180.64
93.88
114.276
193.569
147.855
285.623
256.4
232.936
90.4659
286.033
243.39
204.436
96.3126
90.1334
286.419
72.8113
177.214
284.641
259.075
91.716
258.68
213.868
99.2933
250.219
96.9911
283.691
105.671
271.327
80.7281
220.542
299.562
245.461
78.6007
271.461
284.294
188.421
142.602
105.5
105.23
89.7706
227.089
255.879
281.847
275.056
241.682
80.7406
97.1033
200.067
271.495
255.299
88.9354
260.631
238.302
146.039
205.995
147.551
90.3435
279.35
82.6118
134.851
70.2212
285.93
85.262
97.6254
132.453
70.4707
271.467
103.584
124.421
195.854
76.4427
238.162
70.2499
100.835
97.2576
280.826
286.109
237.702
287.634
137.638
280.829
285.955
160.32
215.739
128.622
128.14
133.883
79.7794
148.805
78.0105
282.264
279.767
101.585
280.299
263.405
138.638
207.486
270.646
280.651
271.423
109.973
281.645
282.097
84.3546
256.02
153.484
230.119
99.9256
285.516
123.383
71.6578
81.577
102.203
219.296
162.56
244.615
227.897
237.599
215.531
81.8148
79.1975
285.091
173.071
285.948
133.925
114.842
194.635
217.256
97.3254
285.28
285.302
128.244
188.631
284.384
101.505
285.91
243.57
102.043
111.762
83.1897
221.811
135.142
181.431
286.175
113.707
168.481
280.826
285.715
99.4354
80.7813
281.894
136.69
228.978
234.913
157.605
276.207
168.548
73.986
132.482
273.45
82.5518
238.999
277.71
178.006
285.14
92.5065
98.0474
102.087
83.7994
234.083
112.387
118.529
112.292
196.335
142.587
99.4865
280.511
276.308
102.64
277.986
103.33
92.6412
287.462
147.111
80.932
100.294
79.0917
109.374
96.6972
102.021
141.646
283.584
111.758
85.3198
193.215
145.723
209.752
119.207
136.32
286.005
93.3032
133.358
239.681
284.551
280.238
286.431
110.855
93.3722
285.321
84.1815
282.133
219.623
82.9167
286.034
286.019
285.981
71.7401
138.79
97.9231
88.1222
98.9878
151.889
160.167
82.9032
252.822
179.913
75.677
282.031
286.127
161.564
104.558
83.9218
286.381
259.624
97.2593
281.111
111.14
219.842
281.236
189.487
178.901
184.845
238.4
104.166
281.093
95.7045
82.428
109.062
205.046
280.136
130.467
125.007
81.1049
95.3057
104.296
175.495
260.219
286.593
99.5452
279.226
76.1919
134.421
165.455
286.019
271.027
88.9274
152.162
285.299
271.149
275.827
150.163
174.9
253.47
256.535
209.579
122.002
104.028
125.406
115.832
77.7598
158.5
288.516
128.986
133.868
297.357
220.791
140.024
112.297
123.432
113.569
100.151
238.604
171.625
135.08
94.9569
234.006
266.456
122.661
286.462
280.853
251.98
169.379
100.926
102.641
108.839
285.995
160.556
86.8578
69.7126
124.573
83.1954
134.816
71.6399
284.621
280.642
134.117
278.838
263.04
104.934
108.75
100.39
76.4433
181.897
271.473
96.4624
174.339
272.976
88.3895
276.113
136.401
86.6183
289.041
189.113
128.997
152.358
270.854
272.166
113.207
265.753
125.343
74.6127
212.944
78.7526
281.828
76.7934
248.969
229.744
244.903
229.772
178.453
279.758
285.726
75.9836
92.3329
165.922
157.4
285.163
211.176
74.4885
79.6655
92.5029
286.151
78.5087
223.435
215.034
229.327
284.498
285.696
155.922
281.712
120.101
176.315
82.924
179.188
107.767
286.02
249.865
95.5232
234.682
184.968
72.9394
287.252
238.917
278.962
191.571
90.1062
285.988
284.975
277.19
135.638
280.956
173.599
237.251
186.164
288.698
124.269
284.646
238.126
198.082
204.274
197.07
168.758
189.749
277.642
180.772
299.092
209.367
285.385
225.102
244.665
75.8101
101.642
134.068
286.056
213.356
178.687
182.357
103.706
300.015
227.579
97.4839
228.627
243.978
165.905
172.136
125.821
94.8025
285.971
169.436
147.865
181.039
109.74
298.256
151.063
295.017
184.171
87.952
111.393
194.783
238.528
180.544
277.781
155.42
75.012
83.3323
151.443
298.102
78.0261
280.197
123.718
92.2949
194.617
217.711
187.614
74.5321
88.4043
283.512
71.9414
103.661
91.8379
85.3802
174.812
86.4844
82.071
79.7652
182.038
119.883
221.58
226.052
276.74
99.5607
103.351
79.1547
138.075
281.949
234.565
243.888
299.813
242.305
101.641
103.706
275.67
170.526
271.139
93.615
93.7377
277.91
152.563
245.71
241.999
83.6214
230.731
139.537
85.9224
148.111
211.51
92.0708
125.109
95.2449
87.4026
102.671
242.731
272.748
102.116
102.686
190.028
96.0604
243.157
147.925
183.35
87.5413
105.235
216.431
279.688
285.277
189.845
281.33
102.016
159.106
265.75
277.176
214.427
274.704
189.455
221.774
299.15
92.6954
124.51
69.274
69.6394
271.331
237.576
224.954
147.675
91.6176
285.942
116.972
71.46
171.234
271.556
275.459
212.816
150.208
91.9552
274.856
284.616
110.553
124.879
135.38
86.0956
257.429
111.164
148.666
95.2416
171.338
281.633
277.874
286.05
152.533
96.7789
232.809
195.946
125.107
100.082
275.497
95.2329
156.188
100.228
105.902
218.696
188.257
240.083
113.499
85.9182
288.386
273.21
124.662
120.914
284.698
95.7703
254.71
125.843
276.522
90.1101
238.036
91.2855
174.666
163.489
101.154
131.701
286.019
88.9236
128.405
77.0826
238.244
134.881
239.202
281.44
78.528
241.349
117.12
276.247
147.453
74.8463
100.797
209.347
287.789
271.889
82.9496
111.984
286.99
185.56
277.947
81.1437
200.151
110.992
174.552
76.2582
161.875
232.39
231.443
136.586
287.087
273.301
202.132
286.98
128.934
93.0838
223.862
261.034
85.4458
84.4009
96.9283
83.4788
283.612
286.757
113.666
105.38
163.421
101.32
76.9989
286.037
112.791
186.846
286.084
78.2973
241.16
243.725
92.5831
241.995
92.4501
239.771
144.05
280.174
103.301
300
260.044
109.476
279.494
78.5617
123.699
282.049
189.391
282.653
167.898
271.969
281.23
177.027
121.681
215.524
239.183
231.65
104.981
276.965
240.184
132.496
178.922
178.087
122.553
120.953
279.869
87.2958
89.8111
126.194
285.955
117.223
72.6407
283.575
281.078
71.8263
102.63
241.835
120.27
283.769
117.638
206.723
100.979
283.867
173.724
84.0217
228.986
72.3007
265.183
86.1346
90.835
226.275
75.0977
112.37
86.8176
111.677
297.059
151.519
84.4312
254.195
282.963
69.7083
91.3266
241.274
102.611
286.04
240.614
281.885
105.715
266.713
120.206
235.316
108.625
177.164
104.18
276.033
80.9669
285.681
109.279
246.334
236.332
163.284
288.991
227.995
233.361
238.05
295.188
145.925
84.3735
111.78
104.035
158.277
233.364
269.566
90.3336
127.178
279.917
218.153
284.129
100.557
282.221
141.7
209.774
119.297
70.3945
173.62
287.173
105.459
271.629
282.613
89.9079
224.645
277.591
94.8567
286.163
229.426
177.279
79.2999
275.17
241.026
98.3246
112.53
245.463
278.779
117.984
242.319
282.22
128.856
73.1049
175.312
241.493
87.093
150.275
77.6327
260.744
103.882
112.571
218.38
206.578
203.809
83.5888
260.919
183.699
279.609
131.759
70.6231
75.292
285.562
87.2956
282.775
95.3174
103.678
78.8099
229.473
134.258
269.54
296.345
174.566
134.328
140.153
145.138
164.93
104.451
94.5844
285.97
177.524
79.0916
279.428
72.5668
285.744
238.378
160.386
282.746
284.503
279.531
300.002
80.6193
287.127
201.512
80.9596
76.4674
157.685
100.195
260.517
74.3981
175.037
193.309
284.234
128.328
286.039
138.345
207.079
147.05
99.8497
237.899
283.141
121.592
243.36
209.05
168.575
277.278
275.685
235.617
103.381
74.2669
243.294
240.518
134.642
214.135
148.643
71.384
164.252
78.5646
191.861
127.676
288.776
89.5196
186.344
285.82
274.312
282.966
238.722
267.276
97.9366
282.006
75.6127
233.869
78.9896
111.493
221.765
299.955
260.292
271.339
265.129
124.766
285.953
142.476
241.343
98.6854
134.895
283.983
235.228
79.3645
221.065
223.203
283.055
195.655
282.64
245.028
88.9814
72.2751
130.001
280.407
72.0977
242.42
93.0919
100.011
285.737
185.246
112.754
80.4986
156.974
77.2415
273.543
125.901
100.791
213.272
118.993
286.799
91.5852
93.3375
278.027
103.285
280.723
113.418
234.17
80.3551
126.405
243.439
130.065
283.896
240.689
91.154
98.3358
122.065
92.5367
271.643
175.183
84.465
280.806
270.821
118.555
286.039
126.191
123.371
282.871
108.228
287.313
89.0047
128.203
235.008
201.193
123.695
247.291
114.171
243.788
174.329
151.267
86.0895
239.428
242.163
91.1782
92.4613
73.8117
79.861
279.944
212.924
162.69
81.8516
107.576
244.331
272.034
287.621
107.335
280.406
120.208
105.526
99.365
286.034
269.925
105.337
266.893
120.992
163.649
108.076
77.3026
96.9664
81.5506
239.003
99.9183
88.8829
118.685
282.577
280.656
79.8084
78.8268
172.236
147.977
181.581
285.714
161.444
112.464
100.038
286.01
280.375
271.923
94.0954
253.672
120.041
243.331
108.5
202.287
277.584
107.09
284.725
92.1677
141.787
150.974
157.37
217.288
239.509
284.916
80.6717
200.899
209.072
198.687
134.437
145.691
73.3374
93.346
280.128
80.6371
231.957
137.274
202.278
244.675
240.174
166.721
272.543
285.025
126.707
114.573
113.367
99.5717
187.718
192.353
103.892
83.3869
82.1445
241.143
93.8608
128.403
168.065
191.017
285.891
83.5531
117.365
278.639
107.711
104.544
187.011
270.313
171.905
74.4065
74.4203
124.385
106.606
163.457
224.307
241.817
126.923
285.205
79.0855
124.354
76.6181
85.5583
286.524
91.7837
105.549
91.7832
285.875
272.319
233.663
233.534
285.424
300
84.1149
140.441
144.919
242.722
82.8201
260.096
235.491
75.0894
280.961
187.876
170.75
285.872
286.08
90.7369
195.703
214.876
72.87
105.052
158.621
105.737
89.0649
213.795
278.44
127.537
279.119
114.073
222.304
258.845
75.7102
158.295
123.141
267.264
274.897
110.081
185.61
170.891
228.487
127.632
242.186
214.407
200.971
91.3311
272.727
158.581
101.595
102.386
270.87
274.006
78.9834
93.4034
275.306
198.121
77.4199
279.427
96.403
264.626
92.677
220.076
147.274
107.462
111.531
83.9577
299.814
189.22
281.717
96.0825
173.033
281.866
100.105
86.5986
127.36
216.985
280.416
239.967
281.13
76.2765
100.013
117.134
118.238
121.106
114.476
74.5569
226.277
84.3154
176.59
100.739
215.309
92.8728
249.222
280.134
140.125
284.067
227.318
285.94
122.479
239.179
93.4502
267.554
96.1193
275.069
94.1704
134.923
69.271
160.163
120.544
97.5717
131.078
220.057
285.979
241.01
127.069
110.506
255.906
196.621
242.242
299.999
239.785
115.352
84.455
224.724
134.585
69.9962
138.452
73.1111
176.262
282.074
192.658
265.35
187.608
134.634
92.2805
95.0343
207.506
77.5958
95.6097
284.049
171.708
242.699
260.234
114.735
282.876
205.088
281.899
139.157
89.2769
243.161
251.85
125.144
279.226
246.88
82.8055
88.3051
75.6985
243.009
159.733
123.833
243.133
202.915
92.6315
238.169
143.567
270.421
92.1088
68.2215
114.457
109.199
71.0129
225.004
72.9626
73.196
98.6375
299.965
177.801
197.927
122.434
270.511
280.193
282.552
98.5078
209.868
126.562
276.128
97.395
100.773
82.5143
119.035
94.8792
77.1116
119.819
77.6702
207.044
80.4018
282.037
205.267
119.453
101.129
125.166
184.175
127.759
285.836
98.6225
170.636
127.575
284.36
284.69
82.427
85.9992
86.4009
165.21
76.8087
141.894
128.259
279.354
184.952
285.277
238.628
105.381
71.1871
127.699
107.734
297.317
283.721
244.577
163.613
134.804
240.006
271.702
78.444
86.8721
126.783
176.004
299.967
110.147
285.984
72.3629
81.3484
81.8118
113.04
106.937
160.75
228.456
270.669
283.873
192.22
92.9128
104.468
175.487
70.4547
175.904
189.979
180.881
118.361
155.855
282.709
164.69
95.2008
69.0456
220.427
220.46
167.25
107.793
120.167
166.139
107.655
186.349
154.697
88.3688
225.547
276.483
259.954
274.9
76.4916
281.955
254.665
243.603
115.151
85.3635
234.5
107.712
282.476
100.65
68.3789
102.097
127.358
100.684
280.995
106.572
155.222
285.244
216.126
222.973
235.187
117.125
212.066
120.403
81.047
95.4064
72.7389
231.837
86.6232
192.283
239.617
89.109
274.506
77.0231
193.966
84.9116
207.421
223.595
144.146
142.829
146.888
88.9552
276.643
241.227
80.3005
286.757
79.1905
107.955
125.242
169.059
247.473
244.599
285.918
286.887
107.665
249.783
300
77.3489
127.661
159.416
283.872
95.125
210.272
116.434
114.559
126.652
238.693
128.662
286.224
270.733
93.6638
252.078
267.619
167.609
150.631
263.772
282.677
284.446
243.478
87.407
287.245
217.168
208.407
92.4374
262.982
279.407
89.902
73.7099
86.8273
91.9738
258.557
91.8872
100.075
112.496
284.598
161.367
100.083
285.244
285.856
285.255
286.682
89.0186
119.516
276.014
279.358
108.898
134.147
86.0225
93.1004
261.358
243.019
160.671
272.161
87.2232
286.007
286.069
285.343
295.44
71.6129
96.2859
145.889
108.614
212.784
209.789
82.5819
124.429
164.724
103.608
95.8304
169.794
105.132
284.855
209.698
126.325
115.373
80.8875
162.731
282.155
78.8752
88.3489
288.125
285.136
232.987
83.4261
98.1684
162.019
101.187
89.5419
119.462
240.387
281.345
284.675
285.989
215.483
241.197
236.38
290.209
225.099
172.18
102.886
275.524
114.903
282.611
267.883
179.349
224.149
87.6769
226.286
276.091
115.256
99.8641
298.359
90.9911
202.826
207.334
286.041
96.0258
113.421
268.466
187.433
174.272
89.0124
275.848
121.551
285.929
143.764
110.07
238.614
207.998
256.882
243.232
97.3967
199.201
137.877
136.441
283.472
138.729
257.716
111.295
205.838
102.797
108.238
158.692
76.3667
208.991
287.514
255.494
216.191
283.787
147.307
171.582
78.569
217.341
87.6985
239.525
285.05
284.835
74.0208
161.123
284.651
121.798
113.234
103.679
120.469
154.905
83.4547
93.8733
118.61
276.115
167.847
140.717
283.135
135.196
183.699
166.315
84.6132
153.415
298.707
131.166
285.76
287.97
109.198
96.1528
132.575
285.703
88.7526
85.781
213.77
115.759
284.78
76.8529
177.305
237.855
285.904
283.826
216.525
281.515
78.1113
83.7009
284.544
264.299
112.398
286.647
84.962
159.389
101.693
165.195
172.005
120.827
273.272
98.008
288.67
76.0909
131.641
99.5167
92.9008
300
300
83.7988
268.703
100.72
133.648
284.342
102.289
147.266
105.108
148.27
79.4818
108.175
135.002
273.364
88.8914
76.0116
133.524
96.376
79.4615
246.4
78.4262
283.525
124.861
289.561
226.201
128.407
282.827
283.803
275.42
112.394
276.848
273.791
109.081
168.516
299.391
282.545
187.814
96.1403
276.607
279.214
110.517
284.853
278.627
285.994
283.933
99.9172
116.509
239.938
115.744
225.722
162.147
275.949
240.337
278.254
71.5762
89.6415
212.255
265.426
281.088
174.434
93.2648
279.703
91.6921
238.463
167.491
139.67
286.66
160.925
283.112
159.713
164.25
244.444
168.3
228.73
101.557
285.272
113.913
223.325
101.628
89.1735
240.113
286.087
285.959
77.0323
123.404
257.968
211.928
129.017
282.799
243.475
249.769
150.124
73.4706
273.337
198.565
283.6
104.157
286.04
266.204
79.123
228.654
90.6392
145.525
284.48
122.231
251.859
234.234
112.542
215.21
164.063
111.304
222.256
100.457
179.016
243.533
276.788
214.642
224.576
282.562
90.0236
109.613
269.586
135.634
171.915
76.5872
100.358
123.163
72.1559
87.1621
183.738
285.645
230.23
80.8186
168.664
79.3406
187.38
105.229
244.615
179.818
125.015
77.0786
73.5599
285.7
224.557
98.7371
98.1336
269.167
77.3629
283.228
284.093
86.1679
282.034
285.845
72.025
100.989
281.184
173.342
85.3634
84.7499
75.3095
175.6
106.982
148.804
195.525
71.148
85.7994
74.9639
106.538
150.804
131.937
81.6966
260.919
73.4092
299.622
94.1623
77.9541
109.537
136.551
274.962
77.7279
127.284
72.3094
114.868
193.799
72.1974
282.271
107.582
104.06
198.27
145.802
191.561
104.482
106.777
217.415
226.471
101.627
275.174
145.899
166.408
285.155
84.655
89.4782
81.3365
141.093
81.0044
83.4366
139.921
67.0432
69.0633
282.763
240.074
297.244
108.281
252.414
285.351
94.8345
293.228
136.026
125.669
201.261
167.934
81.3975
274.808
285.104
95.9843
99.0569
101.176
74.1371
286.074
274.761
210.641
123.04
268.369
99.6964
77.3396
277.446
94.1249
186.099
116.955
242.218
141.403
280.007
107.216
132.146
148.413
104.391
244.276
150.309
282.987
285.986
276.616
280.477
114.033
99.1336
106.948
282.281
241.524
238.248
89.39
115.816
180.084
151.579
92.3563
103.784
260.413
167.814
206.932
269.326
287.591
190.937
159.568
281.29
285.245
270.137
92.9995
286.068
217.278
200.535
261.118
285.61
76.7351
73.2985
92.6921
196.386
104
112.138
131.031
71.158
242.551
278.511
236.706
173.585
172.54
80.4387
245.62
74.5545
183.893
284.396
179.397
238.228
111.432
240.635
150.257
122.29
244.996
275.051
70.9474
108.114
81.7759
68.5633
214.758
165.548
280.769
265.329
295.949
84.1058
283.02
92.9685
178.225
86.459
72.0187
100.064
90.3359
245.225
207.732
254.32
131.789
116.86
122.978
183.037
284.024
218.617
200.655
105.563
232.539
205.734
243.622
95.0547
226.785
174.531
108.635
239.985
284.705
143.081
89.195
283.853
285.674
130.451
113.737
273.965
159.585
159.012
283.696
271.122
231.26
141.529
129.259
196.814
279.672
73.9515
209.693
135.128
132.367
121.781
214.815
120.58
142.977
284.29
120.153
270.059
112.683
271.433
268.785
220.441
98.1575
98.0099
139.016
72.6436
94.3108
96.6942
90.988
147.467
181.163
73.3564
96.3639
232.464
125.942
100.399
249.642
182.904
102.968
254.689
281.848
112.164
200.37
238.21
284.117
187.598
255.255
107.541
118.655
270.3
285.484
296.658
91.3848
160.296
278.298
146.773
264.478
253.102
135.917
74.3111
73.6079
96.2835
241.117
102.523
85.9782
80.2514
286.091
285.919
140.876
282.695
180.496
84.4083
172.696
243.56
115.824
285.304
133.179
180.358
75.4354
92.2838
287.431
140.997
280.72
283.937
131.956
79.4154
101.153
103.772
272.502
78.0434
103.424
293.7
197.312
278.149
84.78
275.922
220.479
191.912
165.08
100.981
75.0229
118.938
226.834
284.531
208.275
75.1748
150.425
129.309
184.242
90.7547
138.516
128.059
90.426
285.151
275.242
109.153
103.588
103.7
108.403
136.29
225.356
265.079
78.4833
155.999
257.341
114.971
288.412
106.952
110.087
229.582
285.743
145.841
75.5616
73.037
89.9544
113.124
114.805
104.65
110.242
80.8874
155.079
69.9064
73.7004
207.544
236.008
75.662
98.2416
218.388
83.936
78.1689
108.001
95.8463
79.0786
283.783
91.4463
83.2384
285.937
124.735
226.221
282.845
286.021
113.417
216.723
233.053
285.713
245.812
283.741
293.214
116.694
286.223
138.878
130.563
131.155
100.533
104
185.729
236.929
110.303
111.333
285.951
130.781
78.8031
92.0335
112.814
92.4995
212.773
113.255
89.3069
78.2565
179.937
77.5941
281.198
282.146
202.024
82.1583
277.457
278.544
253.402
283.429
103.528
153.34
205.991
173.622
77.3489
136.452
226.053
213.391
99.3969
89.638
67.6782
102.804
80.1364
103.53
284.711
97.5978
111.703
78.3039
269.835
218.218
106.76
285.576
97.8964
99.8888
87.7378
98.3704
198.321
182.756
105.953
285.25
287.557
284.788
75.5939
211.117
86.4203
96.3177
144.992
231.203
89.3353
130.846
228.707
97.0953
282.956
98.8534
164.552
75.9938
288.282
77.7053
197.649
79.4747
183.483
101.648
87.3447
285.274
286.915
243.133
285.118
87.8692
86.6461
74.1693
129.029
208.602
92.9225
96.4558
284.219
81.2012
216.089
192.747
182.674
141.058
95.4089
197.586
102.064
282.895
109.758
241.225
280.161
73.8044
143.875
103.956
132.586
280.266
280.316
75.3479
258.645
86.0444
80.6608
283.895
118.481
199.47
236.104
227.39
111.041
144.483
278.722
204.402
72.6764
207.051
105.761
111.083
207.903
84.6308
287.243
132.588
241.791
147.363
93.3541
230.623
92.8565
115.223
235.909
271.071
95.1086
110.824
285.929
71.8916
270.805
286.017
279.417
116.651
132.96
119.979
234.466
263.26
232.351
73.0917
91.9352
184.496
237.066
98.5867
108.309
84.288
285.329
272.71
234.615
127.512
99.9503
93.938
193.985
186.618
77.5754
193.811
72.1112
193.781
122.689
132.552
182.131
158.819
102.239
208.198
155.348
84.2945
113.808
166.116
169.313
101.348
78.2184
170.51
224.107
86.4133
219.32
289.629
272.283
149.476
265.067
284.222
104.982
87.0796
271.625
221.027
78.9679
81.095
72.808
280.418
270.024
274.138
128.259
75.628
76.4569
97.2919
92.4966
83.1336
142.493
155.273
245.817
281.325
184.004
72.1845
208.545
274.987
97.551
110.262
83.0907
74.1156
158.832
242.675
252.244
173.751
161.573
209.538
219.7
210.617
284.467
84.7344
215.172
272.124
286.025
219.315
271.894
242.788
268.658
79.1186
77.1461
68.6388
93.8511
93.4755
285.357
130.807
179.513
85.0179
162.224
96.1618
78.4065
206.049
103.154
115.46
121.796
280.141
222.102
71.4618
86.9272
231.326
110.331
281.01
79.9718
120.724
190.803
119.952
196.132
106.931
278.951
275.372
285.907
158.643
85.0568
89.702
242.267
140.637
92.3296
118.623
285.911
76.4538
184.689
161.612
172.968
104.996
135.862
268.096
123.704
81.5373
86.5344
109.504
86.1193
150.914
87.4997
86.3194
98.9711
104.305
242.891
92.6639
286.009
245.51
129.629
90.2099
108.01
268.112
247.454
282.633
173.729
235.782
95.798
110.155
263.742
143.313
284.688
240.63
78.3556
193.33
102.104
281.839
102.299
99.7184
286.077
285.385
222.769
284.506
78.2877
282.646
213.16
96.6681
211.565
206.02
99.5609
229.513
286.948
99.6377
152.428
131.374
285.955
114.812
75.0596
208.364
194.97
256.693
167.993
286.037
83.8359
137.604
80.1275
131.048
83.0671
83.13
174.766
104.087
171.193
286.03
173.668
279.216
251.81
245.254
137.149
218.914
179.524
148.772
105.775
69.3103
91.343
272.842
102.346
192.791
226.667
285.827
136.632
101.886
208.368
94.143
76.7949
100.606
82.2953
135.932
92.5978
285.829
183.261
113.419
135.002
176.846
95.6749
82.2293
149.904
281.323
83.0538
85.3329
230.588
274.928
92.6072
99.7467
80.6734
124.128
143.291
114.707
185.863
93.0633
110.496
73.1868
82.9072
213.645
242.7
109.457
168.31
114.422
283.659
175.978
94.3628
152.055
201.532
284.704
191.38
112.534
120.033
81.9947
130.987
300
76.1957
101.986
278.651
99.0267
70.1631
88.4654
243.517
283.052
286.165
282.826
285.9
85.9244
264.557
111.341
131.894
193.524
82.0112
162.074
197.606
141.788
281.991
236.523
94.6537
222.539
109.17
161.416
106.16
284.17
194.471
107.657
91.9263
142.374
182.139
133.595
281.317
146.23
267.98
113.952
99.5718
288.415
78.8683
281.185
120.969
103.946
76.6732
99.4156
117.299
74.0823
111.644
70.1597
224.904
72.3582
68.8344
103.15
134.052
205.99
281.427
98.2018
103.924
279.922
74.4915
82.4647
86.0127
113.423
273.153
174.898
116.557
236.413
285.046
208.498
110.983
108.539
133.987
203.204
171.725
85.8691
108.021
132.551
95.9963
189.244
178.917
82.7517
116.356
136.927
274.856
111.551
250.467
135.2
284.731
94.0892
195.818
255.626
243.257
169.712
273
279.852
83.6698
238.079
217.091
224.586
285.329
109.421
187.751
99.6471
184.355
135.316
204.995
78.6447
222.184
97.2312
85.1566
285.287
281.008
224.633
113.026
250.591
103.902
299.999
76.0867
203.707
140.922
92.4962
285.906
113.132
197.411
83.7551
95.4187
181.464
184.872
73.4357
104.544
77.3393
193.741
93.837
156.238
285.934
284.555
129.532
286.037
90.1008
213.742
107.771
256.99
97.0428
209.911
106.557
91.7207
97.6653
97.2647
278.001
283.991
154.058
83.1786
281.984
100.752
203.825
97.3742
114.108
106.666
78.6244
77.4368
79.0538
286.093
190.684
119.434
171.924
291.324
123.912
237.649
130.035
94.922
179.068
285.209
97.7361
124.881
275.668
213.038
290.672
79.7267
269.631
269.129
238.241
108.047
234.366
278.227
78.1412
151.878
285.892
94.093
286.037
284.19
84.1044
285.433
84.0944
279.474
119.922
189.679
87.105
90.257
187.356
215.653
268.491
160.37
70.8997
286.025
101.712
108.306
132.57
93.3693
286.013
86.7815
240.614
275.01
113.172
175.774
123.966
197.661
177.326
282.874
179.64
96.1839
282.267
197.504
173.47
229.691
85.9636
101.003
242.773
271.521
281.458
105.83
285.411
100.843
111.998
185.143
263.367
126.886
121.569
226.555
225.762
101.265
204.321
88.8835
81.8505
148.019
180.128
282.243
67.5169
285.354
104.6
73.7043
116.671
79.9367
237.272
98.7459
131.243
181.67
85.5298
101.252
265.279
135.66
76.0926
262.178
153.64
103.238
197.865
238.573
285.939
285.59
105.419
241.995
203.483
163.455
82.1668
115.545
237.851
187.344
220.524
162.663
99.646
74.4745
86.0437
212.894
90.7627
254.071
121.105
219.235
67.593
278.278
192.4
86.3098
89.0013
91.4959
90.1065
231.91
153.389
268.225
93.4253
119.169
113.671
77.8945
236.784
126.815
285.494
270.789
181.871
75.311
101.004
145.963
76.6996
102.206
279.13
211.415
104.706
216.532
282.945
84.0863
105.253
286.07
103.216
77.1613
161.015
87.01
123.231
77.3891
217.382
275.443
230.857
284.286
83.6139
285.271
217.323
233.663
280.34
128.866
285.911
231.618
207.194
133.14
80.1659
101.276
89.0877
227.393
209.84
289.915
283.054
127.788
211.448
102.187
275.817
123.026
114.415
169.253
198.713
239.011
175.515
107.714
130.936
100.546
77.6714
76.3663
101.396
141.643
141.236
229.241
195.689
143.568
167.181
266.96
106.495
119.767
102.069
162.071
280.357
199.955
104.305
80.7167
229.422
135.204
96.2257
281.928
241.224
109.23
133.535
111.664
286.022
284.611
84.8157
127.876
125.176
101.827
127.742
87.4987
81.1578
285.806
111.421
217.229
254.978
190.562
148.804
283.555
98.193
273.334
202.459
84.5506
250.238
190.899
208.592
284.082
89.0444
285.232
285.636
279.16
76.7624
286.971
206.166
131.219
117.356
97.1174
161.497
288.008
289.899
129.272
74.4019
111.152
111.683
284.768
197.054
224.535
286.006
270.414
76.9164
220.031
284.836
261.041
103.168
285.494
184.099
117.084
92.2354
281.652
130.312
153.223
285.991
101.453
175.748
284.97
184.928
119.6
286.031
73.6856
281.358
102.66
204.57
153.135
230.65
110.969
73.5475
134.845
109.294
152.278
107.993
249.251
149.212
107.04
270.857
95.6839
150.169
88.6049
210.123
169.536
98.6163
75.5296
231.024
199.174
122.259
218.771
93.8652
120.843
145.467
82.3012
67.7033
85.5229
286.126
144.675
152.725
209.113
253.363
220.958
286.972
153.134
237.976
116.781
204.797
199.31
241.194
97.3725
86.4181
268.99
231.94
91.7581
208.56
74.7687
284.901
239.837
87.2954
89.8813
186.735
228.83
286.202
211.042
111.667
90.7033
101.937
74.8454
227.399
74.2992
236.845
264.142
205.06
131.114
255.959
239.918
91.341
216.762
188.72
276.635
290.003
128.301
266.459
290.624
285.816
232.03
277.255
87.2004
242.15
92.1155
215.822
120.079
90.5808
213.994
132.056
149.513
96.2633
215.134
115.1
156.594
70
258.295
217.745
107.932
285.809
86.4113
280.45
285.874
297.946
73.1782
207.634
210.756
96.7327
117.142
115.726
285.01
214.189
282.526
274.921
78.5932
73.3569
125.921
93.9998
77.1757
220.639
94.7055
203.06
71.8974
120.879
163.514
236.056
101.848
77.6073
234.547
106.656
150.052
125.772
198.033
181.157
255.894
189.146
230.248
111.055
161.344
78.1451
248.308
231.047
188.613
204.736
85.9165
223.296
273.155
133.211
168.28
239.291
184.036
95.8308
214.216
127.322
84.0661
74.9985
239.065
286.087
97.6792
107.702
67.4938
69.0312
68.7622
68.2465
67.9538
260.965
272.789
246.499
271.005
239.684
252.238
101.956
75.6147
109.001
142.182
153.333
81.2083
82.5796
123.2
250.834
81.6746
104.585
219.864
133.047
151.451
94.7538
116.543
76.4131
205.986
112.945
73.8354
281.165
86.4971
230.229
218.062
80.6952
73.4233
124.778
259.69
286.026
282.687
130.782
241.933
165.544
99.2825
107.852
129.126
171.99
285.558
284.681
106.224
100.591
272.719
261.309
80.7122
286.087
272.164
99.7619
161.018
285.58
272.868
195.352
116.613
137.36
268.738
150.837
213.594
134.481
234.917
124.374
282.635
172.377
78.6934
281.91
123.791
131.481
84.4261
177.266
99.556
99.2733
162.831
163.995
184.588
134.766
285.249
77.3886
276.493
276.502
86.0957
175.477
273.402
265.115
280.755
161.504
73.5886
112.09
111.805
148.922
99.4452
211.343
167.916
194.087
283.326
239.811
132.688
101.885
153.366
270.58
169.521
85.5354
88.5942
116.91
229.37
267.391
111.693
166.625
134.83
195.816
235.016
103.964
185.822
95.0194
87.1775
284.414
276.663
139.871
161.859
277.968
173.614
278.829
116.156
249.13
117.698
281.905
197.044
218.771
285.386
223.908
286.082
94.4355
132.647
108.949
78.5254
135.605
112.684
183.939
101.089
143.34
203.111
134.403
185.424
204.059
270.075
285.913
231.75
285.053
286.207
285.9
106.855
86.9987
198.971
280.185
105.722
122.5
95.6388
121.093
90.9582
92.7567
107.141
267.082
278.788
247.532
159.436
134.033
97.6698
90.7943
285.649
224.091
135.759
85.2105
274.614
101.705
181.78
277.573
81.3884
133.923
86.5526
120.441
151.782
77.6597
162.709
73.2066
285.917
197.883
130.971
285.915
243.749
268.167
286.053
286.013
232.315
285.276
96.7481
209.094
278.917
89.1594
242.244
277.952
215.635
222.535
219.171
204.449
112.128
213.456
91.8113
93.2031
94.3781
126.284
124.137
110.384
68.062
122.308
228.481
131.53
168.056
207.137
106.188
74.6849
83.6957
73.9651
95.5549
163.912
69.6417
124.204
72.9277
133.632
180.698
114.044
175.907
218.359
102.486
112.598
285.962
285.691
174.948
136.089
220.319
188.935
243.254
95.409
127.729
70.5179
236.94
115.565
242.6
173.381
98.3591
223.487
207.939
157.147
99.5754
286.706
255.856
90.2475
175.774
118.221
219.543
284.909
192.578
272.851
235.261
153.921
95.6779
103.014
69.2601
289.961
209.473
271.567
127.669
122.136
279.109
240.188
78.2185
285.844
133.841
278.1
89.7561
94.7528
227.563
103.154
279.156
91.1727
128.8
235.754
152.783
240.536
218.769
142.475
193.3
93.7236
127.765
100.478
109.371
216.317
257.845
251.432
288.427
284.265
67.8906
77.5063
102.575
188.141
123.913
220.986
155.184
294.267
191.134
71.933
91.162
221.271
82.8087
159.902
267.971
210.978
138.737
248.955
283.674
102.375
236.268
155.656
102.955
164.552
238.414
68.7209
133.717
280.068
276.401
243.493
212.433
298.267
133.245
112.041
92.5413
187.102
182.308
244.669
90.7801
115.647
107.443
127.365
231.349
284.81
105.224
277.748
136.442
126.707
160.788
85.0197
100.388
174.823
92.6805
217.916
277.534
230.778
144.753
179.304
255.069
89.3504
88.1828
124.798
190.41
92.9388
142.779
156.96
74.323
275.227
136.682
299.019
76.6141
281.114
185.154
240.069
171.636
111.241
277.631
239.116
273.049
84.0995
154.347
160.833
210.601
70.7373
204.571
117.044
94.7842
279.278
273.24
201.238
76.9294
113.347
81.0493
140.358
275.801
81.384
177.032
277.203
228.534
228.414
233.396
277.045
96.7895
285.209
215.63
285.751
170.234
95.1202
81.7384
213.424
269.574
133.655
218.669
237.601
158.619
185.99
108.91
246.521
282.693
129.041
109.223
208.887
217.84
247.568
174.568
273.17
121.575
79.9743
178.991
229.114
167.34
94.728
293.154
96.4044
226.373
286.015
84.0285
198.48
234.237
123.252
138.726
76.9678
72.9605
92.9888
234.731
74.9029
185.499
77.9646
165.733
83.8902
218.418
104.844
71.5877
121.702
176.634
213.051
173.094
114.776
125.233
86.4864
85.8741
85.1311
277.357
97.5786
295.582
287.67
214.405
278.042
133.143
91.7222
226.501
178.88
131.795
263.961
237.224