/*--------------------------------*- C++ -*----------------------------------*\
  =========                 |
  \\      /  F ield         | OpenFOAM: The Open Source CFD Toolbox
   \\    /   O peration     | Website:  https://openfoam.org
    \\  /    A nd           | Version:  8
     \\/     M anipulation  |
\*---------------------------------------------------------------------------*/
FoamFile
{
    version     2.0;
    format      ascii;
    class       volVectorField;
    location    "9e-05";
    object      U;
}
// * * * * * * * * * * * * * * * * * * * * * * * * * * * * * * * * * * * * * //

dimensions      [0 1 -1 0 0 0 0];

internalField   nonuniform List<vector> 
23640
(
(-703.772 2266.67 0)
(-351.929 2569.69 0)
(411.879 338.902 0)
(-12.1324 72.726 0)
(443.186 2607.34 0)
(-209.501 907.461 0)
(-124.658 2816.8 0)
(-76.1337 2108.04 0)
(-198.23 2299.41 0)
(1417.29 620.096 0)
(-33.5231 391.363 0)
(807.841 2431.59 0)
(269.138 2618.9 0)
(468.872 2611.17 0)
(-518.5 551.945 0)
(-136.752 837.615 0)
(1052.59 2223.82 0)
(-58.9729 1045.17 0)
(42.6096 721.069 0)
(-1334.6 2124.61 0)
(-84.2867 489.084 0)
(388.036 164.776 0)
(-81.282 503.313 0)
(128.841 447.513 0)
(-367.842 2458.44 0)
(259.874 2677.42 0)
(-103.5 2140.11 0)
(810.256 2344.79 0)
(1198.54 2241.18 0)
(561.136 2383.28 0)
(136.155 2662.05 0)
(-0.704039 -0.192603 0)
(-88.6659 484.441 0)
(-1169.42 2273.82 0)
(-1602.09 1681.75 0)
(-520.232 395.983 0)
(1017.06 2257.77 0)
(1019.73 2434.61 0)
(907.977 491.722 0)
(85.7209 301.853 0)
(923.958 2187.64 0)
(-204.412 2263.4 0)
(421.041 2576.08 0)
(-1117.74 682.209 0)
(-6.04632 33.4805 0)
(901.335 1692.88 0)
(623.966 2468.77 0)
(162.927 2542.93 0)
(1440.31 629.244 0)
(18.9367 2019.4 0)
(3.42802 4.64274 0)
(-44.5118 1027.63 0)
(-656.308 369.874 0)
(-1036.01 2279.85 0)
(-10.6898 70.6479 0)
(410.627 100.257 0)
(-536.623 1417.89 0)
(-305.298 2546.37 0)
(24.7178 2652.2 0)
(8.26281 35.1818 0)
(100.503 2650.12 0)
(-570.843 1908.33 0)
(34.027 194.312 0)
(-48.2935 984.067 0)
(-399.396 2648.7 0)
(-51.0542 990.658 0)
(-104.704 782.591 0)
(-416.482 2507.8 0)
(24.4202 1042.08 0)
(463.575 2582.97 0)
(65.079 231.767 0)
(-1138.39 2268.27 0)
(-142.955 688.508 0)
(-894.156 2357.43 0)
(174.916 812.972 0)
(-0.653822 -0.0350839 0)
(-152.447 29.4844 0)
(301.211 2618.6 0)
(42.75 708.535 0)
(-30.3551 212.784 0)
(826.378 1637.6 0)
(1600.27 1537.42 0)
(116.055 2536.27 0)
(115.111 2537.75 0)
(-416.071 2690.34 0)
(-967.624 317.346 0)
(-45.4604 1035.83 0)
(86.0809 282.816 0)
(-158.566 568.624 0)
(-477.184 529.379 0)
(78.9184 2745.48 0)
(-310.883 2528.77 0)
(-1172.05 983.65 0)
(-121.178 690.119 0)
(11.5311 1058.48 0)
(46.22 2592.18 0)
(-49.8896 955.507 0)
(472.583 178.983 0)
(-27.696 2118.62 0)
(-1184.88 780.366 0)
(1750.61 1237.08 0)
(-1042.62 2279.82 0)
(126.992 413.32 0)
(1241.9 2291.4 0)
(1483.77 1675.04 0)
(1069.38 2403.33 0)
(32.2229 116.422 0)
(-1222.97 2267.13 0)
(-512.45 2550.09 0)
(-11.3632 2272.71 0)
(267.259 2648.02 0)
(-137.849 685.595 0)
(214.651 2605.2 0)
(870.637 2199.29 0)
(1281.07 1054.42 0)
(-1427.74 2108.15 0)
(-524.863 491.708 0)
(-376.082 2647.43 0)
(-751.603 2195.64 0)
(534.169 2428.31 0)
(93.6377 311.93 0)
(-4.41454 7.7836 0)
(435.355 189.335 0)
(5.8384 4.93277 0)
(989.229 2143.45 0)
(102.865 351.956 0)
(3.55988 3.99005 0)
(1616.28 1204.98 0)
(-213.923 970.801 0)
(696.854 2194.96 0)
(205.295 2411.23 0)
(1698.15 1541.29 0)
(194.338 2632.49 0)
(-675.637 2166.11 0)
(-1196.88 2315.47 0)
(68.8377 226.103 0)
(-68.0932 419.623 0)
(-387.804 2483.97 0)
(31.9942 404.005 0)
(-58.9526 899.08 0)
(-38.4761 2198.4 0)
(-535.354 1369.15 0)
(-149.938 703.377 0)
(-28.8698 389.134 0)
(166.336 672.9 0)
(-190.468 2435.36 0)
(-48.3214 340.79 0)
(79.973 305.31 0)
(94.7268 2720.14 0)
(91.8825 967.041 0)
(77.6737 1979.61 0)
(126.623 477.527 0)
(240.421 2563.26 0)
(-8.08629 138.419 0)
(1332.61 2014.43 0)
(-1291.12 2307.08 0)
(-106.025 2811.27 0)
(-508.518 2531.76 0)
(96.266 844.836 0)
(-77.0407 2134.46 0)
(-397.563 430.404 0)
(-908.693 356.757 0)
(-541.718 390.695 0)
(-48.9757 873.379 0)
(1531.42 2146.97 0)
(1587.53 2094.29 0)
(46.3902 169.396 0)
(-1288.58 1423.41 0)
(30.7004 113.235 0)
(1693.54 1519.17 0)
(169.221 2542.91 0)
(1339.2 1015.38 0)
(189.307 949.116 0)
(-548.06 2556.67 0)
(36.7733 158.616 0)
(-37.3846 156.245 0)
(717.981 2198.24 0)
(1343.14 1081.54 0)
(-30.4744 208.076 0)
(-485.007 2427.31 0)
(-5.37762 34.0712 0)
(509.843 127.619 0)
(-391.653 2477.17 0)
(-873.912 2361.94 0)
(1192.71 2222.38 0)
(257.754 1494.29 0)
(-782.694 2229.52 0)
(-1359.16 1191.66 0)
(-13.6616 43.7626 0)
(-869.908 2346.45 0)
(-286.845 1925.56 0)
(55.2868 376.469 0)
(2.05165 10.7897 0)
(243.444 2566.17 0)
(1025.47 2385.53 0)
(88.313 306.129 0)
(1476.88 1646.83 0)
(-456.617 970.145 0)
(747.766 269.05 0)
(1221.04 1739.02 0)
(-9.3254 564.284 0)
(1152.35 841.808 0)
(1053.42 2416.32 0)
(-193.077 2291.24 0)
(-70.2059 646.404 0)
(-203.888 2752.1 0)
(650.011 229.311 0)
(-85.9012 498.81 0)
(1531.96 1000.43 0)
(44.7775 167.082 0)
(463.733 2608.95 0)
(-446.931 2519.78 0)
(191.912 2447.84 0)
(-335.984 2719.38 0)
(90.5034 270.006 0)
(-70.8757 2403.72 0)
(183.454 2509.82 0)
(-1308.84 2146.15 0)
(-47.8848 1301.86 0)
(-1413.22 1100.12 0)
(114.967 2470.34 0)
(48.0055 392.433 0)
(-15.6284 560.405 0)
(826.589 2405.39 0)
(-130.437 469.84 0)
(149.498 2571.4 0)
(-318.395 2654.88 0)
(-5.83664 4.92488 0)
(-1392.54 1011 0)
(86.2247 2739.49 0)
(-638.159 2353.58 0)
(-1053.67 2282.01 0)
(1314.11 2117.98 0)
(-465.163 2526.05 0)
(-488.433 2536.27 0)
(1581.62 1578.05 0)
(66.3282 237.524 0)
(-61.831 2407.07 0)
(123.378 2711.6 0)
(981.835 1434.3 0)
(1742.43 1270.11 0)
(-1098.34 849.076 0)
(936.666 2201.54 0)
(-196.237 2261.93 0)
(-11.4031 83.3653 0)
(1174.79 2254.89 0)
(404.531 2087.25 0)
(590.306 171.186 0)
(-2.1633 200.161 0)
(109.235 378.511 0)
(6.61662 32.0325 0)
(424.492 2493.31 0)
(613.577 2439.01 0)
(37.1534 155.863 0)
(-213.05 2705.32 0)
(83.3359 299.792 0)
(-785.766 278.241 0)
(-1088.58 2267.11 0)
(-26.2551 94.7293 0)
(-27.6494 99.5266 0)
(-9.97317 46.3119 0)
(608.408 2579.52 0)
(1721.84 1374.72 0)
(-447.579 2576.17 0)
(1391.92 1975.2 0)
(416.34 2574.78 0)
(504.627 2166.65 0)
(-35.988 1916.86 0)
(-209.701 2768.66 0)
(22.1684 1086.26 0)
(1480.96 1026.99 0)
(1410.75 2150.17 0)
(75.9107 243.423 0)
(-13.0338 42.8117 0)
(1638.09 1136.29 0)
(-1106.12 2301.35 0)
(1212.77 2202.5 0)
(-4.79494 7.28677 0)
(8.48817 980.929 0)
(-578.615 2550.66 0)
(99.3391 339.238 0)
(1446.01 1599.07 0)
(305.418 1500.14 0)
(-22.6334 363.701 0)
(-230.85 1512.38 0)
(687.155 1845.8 0)
(-14.5423 1522.37 0)
(431.262 728.094 0)
(51.6016 2654.97 0)
(-21.6175 370.38 0)
(-195.892 2556.51 0)
(-1020.91 2297 0)
(-93.0737 2422.43 0)
(-58.063 1136.02 0)
(32.989 410.93 0)
(194.404 2224.23 0)
(664.605 2208.5 0)
(-857.089 2369.04 0)
(274.105 2626.25 0)
(1024.73 2104.02 0)
(-1255.03 1430.83 0)
(-52.8802 962.362 0)
(-5.09365 6.25552 0)
(-272.123 2516.2 0)
(-71.9529 441.293 0)
(1377.63 2207.56 0)
(1667.32 1597.14 0)
(-962.831 1863.97 0)
(-10.0782 55.855 0)
(-153.257 689.995 0)
(1332.87 2291.9 0)
(1673.08 1254.61 0)
(-35.587 155.72 0)
(90.4348 708.848 0)
(-34.4143 575.424 0)
(566.384 2157.37 0)
(-1412.77 1270.91 0)
(-651.816 294.136 0)
(12.9428 1036.74 0)
(-183.218 1112.56 0)
(813.371 2018.96 0)
(-1085.04 2317.36 0)
(-1614.87 1650.98 0)
(786.897 2364.93 0)
(-1223.62 2316.91 0)
(-1711.23 1093.49 0)
(10.8672 39.5766 0)
(-149.07 2347.53 0)
(746.136 1856.18 0)
(1.26081 -1.73677 0)
(-341.752 1452.99 0)
(-135.918 2164.17 0)
(-887.219 2351.13 0)
(-602.509 2364.4 0)
(93.2052 2434.56 0)
(-275.574 2509.04 0)
(665.569 171.698 0)
(1543.18 1147.24 0)
(185.517 2158.23 0)
(265.872 2635.35 0)
(-771.942 225.932 0)
(-165.068 793.541 0)
(1322.76 2051.07 0)
(4.66469 7.96161 0)
(77.8686 367.665 0)
(-35.8456 1078.03 0)
(-714.31 1932.17 0)
(739.432 2449.79 0)
(219.851 2566.49 0)
(1269.65 2143.29 0)
(-27.5293 101.617 0)
(-1708.04 1036.68 0)
(-1263.42 2190.89 0)
(-349.604 2658 0)
(-1592.93 1680.8 0)
(1603.64 2095.48 0)
(-329.017 1931.68 0)
(-845.477 2526.99 0)
(36.8122 195.244 0)
(44.4745 387.204 0)
(-752.252 2265.33 0)
(-56.4187 461.074 0)
(-63.7316 905.468 0)
(1074.83 2051.41 0)
(-90.6667 2425.32 0)
(1425.96 1804.71 0)
(1428.92 2150.6 0)
(1500.27 920.425 0)
(23.4007 709.991 0)
(-564.039 2444.69 0)
(-1521.37 1089.19 0)
(161.508 611.537 0)
(1289.33 2207.51 0)
(-33.9227 565.708 0)
(976.588 2125.01 0)
(-1263.43 2194.39 0)
(0.534998 16.3709 0)
(-1141.51 808.533 0)
(-151.055 2338.4 0)
(416.333 2186.51 0)
(139.407 702.027 0)
(167.328 639.28 0)
(-91.868 2396.93 0)
(-158.087 813 0)
(-1.56276 2332.92 0)
(-1267.72 2307.67 0)
(-1076.85 701.023 0)
(1611.35 2042.11 0)
(88.4091 312.205 0)
(-1457.09 2053.6 0)
(-10.7579 1151.13 0)
(-267.265 764.265 0)
(-257.451 50.0498 0)
(-752.396 433.857 0)
(-1124.79 1501.41 0)
(111.692 399.505 0)
(2.57439 9.82052 0)
(1135.71 2394.02 0)
(640.103 2442.24 0)
(-889.768 1891.37 0)
(-949.816 1048.74 0)
(48.5859 165.02 0)
(534.252 1286.17 0)
(1370.8 2213.64 0)
(356.7 2605.13 0)
(-256.802 2667.84 0)
(18.2914 70.0371 0)
(1142.19 2272.33 0)
(833.098 666.177 0)
(102.739 983.414 0)
(-438.967 957.075 0)
(-4.4278 203.127 0)
(-32.1954 129.419 0)
(-290.696 2076.41 0)
(-43.6531 338.576 0)
(842.142 2222.72 0)
(747.604 1831.04 0)
(-94.9798 2626.59 0)
(497.936 1763.25 0)
(1230.38 2205.67 0)
(-26.3507 96.3335 0)
(-2.97058 1134.76 0)
(353.123 2613.92 0)
(-379.49 811.41 0)
(1544.62 769.317 0)
(-1357.18 2220.82 0)
(5.69366 6.15521 0)
(375.626 177.965 0)
(-59.0039 454.588 0)
(27.4522 1359.24 0)
(1271.54 2121.96 0)
(0.716345 24.4942 0)
(-46.1439 174.067 0)
(-90.2173 517.23 0)
(-8.45149 2369.2 0)
(74.8091 363.76 0)
(-1496.48 1145.32 0)
(533.407 461.039 0)
(1144.15 1366.94 0)
(3.42349 22.6342 0)
(-637.998 2358.28 0)
(40.7389 193.278 0)
(429.821 285.155 0)
(-1413.28 614.452 0)
(-231.058 1706.07 0)
(-125.499 1312.5 0)
(-807.77 1899.52 0)
(1374.65 940.973 0)
(18.7736 512.061 0)
(1517.69 919.165 0)
(-0.15858 0.261561 0)
(-97.2692 923.545 0)
(35.081 151.744 0)
(-320.532 911.918 0)
(58.3964 1152.42 0)
(-1255.84 2307.46 0)
(32.2809 2668.01 0)
(1657.29 1592.29 0)
(-26.8178 93.177 0)
(1092.19 637.98 0)
(480.831 1775.37 0)
(-238.76 1610.23 0)
(724.011 2465.22 0)
(0.31742 -0.0635503 0)
(747.561 586.562 0)
(536.84 2413.66 0)
(-743.614 569.299 0)
(203.222 58.6923 0)
(-1660.4 1027.39 0)
(-293.778 1874.81 0)
(142.032 2433.77 0)
(-369.8 2533.44 0)
(-8.74419 44.0097 0)
(1139.83 1164.31 0)
(957.682 1424.1 0)
(-691.453 1814 0)
(173.594 2534.4 0)
(0.799646 -0.689534 0)
(1685.78 1258.02 0)
(0.510095 2.30343 0)
(-41.7522 1541.13 0)
(-1389.09 1987.04 0)
(-218.687 2517.16 0)
(-1443.91 652.453 0)
(515.862 691.197 0)
(1543.17 925.055 0)
(-115.94 484.694 0)
(1272.9 994.557 0)
(-130.201 2660.41 0)
(-630.296 2412.86 0)
(355.722 2198.52 0)
(-0.408968 1.6659 0)
(563.709 2534.52 0)
(108.175 374.324 0)
(-188.25 2393.67 0)
(-253.38 2671.26 0)
(-1221.95 1051.21 0)
(-408.727 1450.01 0)
(1413.78 997.368 0)
(1001.5 2412.65 0)
(153.708 2588.82 0)
(-20.7899 254.438 0)
(-1335.9 2248.34 0)
(-237.957 2477.79 0)
(-52.9816 2577.48 0)
(-110.005 2673.47 0)
(-1130 1544.96 0)
(1336.14 2227.01 0)
(-1024.54 2252.76 0)
(427.317 2585.38 0)
(819.424 1727.11 0)
(847.537 2013.81 0)
(-1061.66 426.094 0)
(-1003.61 321.583 0)
(-94.4997 531.933 0)
(-545.913 2535.25 0)
(678.39 2483.75 0)
(1031.94 2397.03 0)
(-194.91 2250.73 0)
(-30.7169 329.953 0)
(-399.471 824.972 0)
(46.3048 1226.04 0)
(-0.0369588 0.110232 0)
(-398.336 388.127 0)
(76.8291 2650.66 0)
(257.773 2568.89 0)
(110.613 563.539 0)
(468.137 1888.66 0)
(135.21 695.475 0)
(-185.856 2549.91 0)
(-302.034 2639.24 0)
(-128.894 473.715 0)
(1594.68 1373.55 0)
(-126.34 226.253 0)
(-484.112 132.974 0)
(-122.099 2618.7 0)
(-722.022 407.837 0)
(1720.17 1368.76 0)
(-1243.86 2249.47 0)
(582.107 2081.55 0)
(-11.0907 915.774 0)
(-179.987 2573.3 0)
(-171.366 2391.49 0)
(356.504 2618.42 0)
(734.413 2438.04 0)
(339.242 2570.72 0)
(-392.219 418.931 0)
(162.29 637.872 0)
(386.87 2452 0)
(394.339 2458.7 0)
(1050.97 1414.18 0)
(-458.902 2522.82 0)
(-417.924 117.994 0)
(-1383.98 1023.69 0)
(1189.08 1354.27 0)
(-538.54 2570.31 0)
(364.755 2474.96 0)
(-1072.38 805.295 0)
(-64.1063 424.083 0)
(34.8519 158.28 0)
(287.904 1051.97 0)
(-83.8201 343.189 0)
(-244.019 2491.03 0)
(1232.62 1710.39 0)
(-62.7839 848.056 0)
(-85.0009 518.457 0)
(187.305 1065.11 0)
(70.151 607.37 0)
(1264.97 1223.22 0)
(937.971 535.688 0)
(0.319815 0.229785 0)
(463.831 2613.85 0)
(-188.155 2383.42 0)
(-1175.89 2392.41 0)
(-523.247 2606.32 0)
(29.9496 713.442 0)
(452.259 215.201 0)
(-1006.61 333.494 0)
(1602.51 1375.44 0)
(702.516 2397.52 0)
(-0.146106 23.1699 0)
(4.54888 2436.63 0)
(-842.607 2527.35 0)
(481.668 1879.04 0)
(87.8858 698.224 0)
(154.588 554.193 0)
(20.9132 917.976 0)
(1584.66 1377.1 0)
(291.103 2673.42 0)
(65.0248 602.552 0)
(-13.1829 196.156 0)
(351.262 2413.55 0)
(849.743 2222.84 0)
(-174.968 2262.13 0)
(-124.501 2692.78 0)
(17.8641 1020.32 0)
(-1299.97 2159.71 0)
(-750.539 2136.81 0)
(-382.575 2526.32 0)
(-1616.53 977.118 0)
(-39.6744 343.054 0)
(18.3944 503.378 0)
(-25.7443 90.2924 0)
(1634.69 1302.53 0)
(-563.174 2405.69 0)
(872.942 267.915 0)
(-988.166 1335.08 0)
(978.304 1883.79 0)
(-496.569 2553.42 0)
(115.288 568.487 0)
(541.799 2439.75 0)
(75.1528 1950.25 0)
(733.587 2472.46 0)
(-350.153 2434.77 0)
(-268.79 967.197 0)
(-1072.07 1395.22 0)
(-483.074 183.591 0)
(-96.9638 2399.36 0)
(739.859 2446.89 0)
(6.35928 4.19516 0)
(-66.3379 654.64 0)
(688.535 2200.56 0)
(-157.791 2436.39 0)
(-12.7998 191.602 0)
(-443.487 2546.03 0)
(21.2824 1064.27 0)
(283.55 2425.24 0)
(-38.882 550.83 0)
(-266.666 2573.41 0)
(436.257 284.343 0)
(1453.99 1906.05 0)
(97.3047 1834.17 0)
(-951.105 816.177 0)
(-491.214 2435.98 0)
(-1448.92 1327.44 0)
(-11.1254 56.1568 0)
(46.2237 2592.29 0)
(283.63 2402.04 0)
(1142.43 2388.9 0)
(511.536 463.412 0)
(-187.786 2262.94 0)
(356.807 151.263 0)
(-85.096 336.864 0)
(92.3317 2642.58 0)
(607.226 166.81 0)
(1.44957 2438.06 0)
(-39.4194 560.394 0)
(-841.818 2085.88 0)
(-1296.93 2295.4 0)
(754.024 2442.99 0)
(-1029.85 881.602 0)
(-6.13341 5.00067 0)
(168.288 656.566 0)
(175.758 2701.75 0)
(-1324.4 2139.27 0)
(-11.9181 38.9747 0)
(1441.34 1003.62 0)
(-114.334 477.755 0)
(424.791 2563.09 0)
(109.705 938.486 0)
(-194.828 2532.1 0)
(-1020.3 1712.94 0)
(-1430.22 2112.25 0)
(-1689.73 1058.34 0)
(179.658 64.32 0)
(-208.015 52.2909 0)
(728.525 1821.76 0)
(5.56528 8.58955 0)
(162.778 618.054 0)
(-198.843 1258.65 0)
(-5.52318 5.95611 0)
(-27.1649 2324.85 0)
(-331.3 2646.74 0)
(-797.963 810.326 0)
(-5.99918 953.774 0)
(781.641 2463.27 0)
(-163.347 2614.07 0)
(434.439 2580.84 0)
(-598.165 2448.35 0)
(-20.3491 249.601 0)
(4.49172 27.7084 0)
(17.4368 2446.72 0)
(363.478 2459.31 0)
(1179.85 736.248 0)
(-502.144 2535.31 0)
(-1264.9 2268.39 0)
(-17.7296 67.2276 0)
(-1161.93 2181.69 0)
(893.252 1612.79 0)
(3.90762 8.45011 0)
(1225.27 2230.36 0)
(555.237 156.272 0)
(-87.6779 1157.27 0)
(453.652 2593.83 0)
(64.009 1248.95 0)
(1210.38 2165.2 0)
(378.746 700.071 0)
(638.195 2096.45 0)
(104.823 383.032 0)
(147.157 2575.42 0)
(-0.000122131 0.000759516 0)
(-6.03649 972.957 0)
(1290.84 2138.06 0)
(112.125 399.336 0)
(1148.19 2342.4 0)
(-177.793 2392.97 0)
(85.7906 299.032 0)
(1247.97 1174.41 0)
(-74.8433 280.868 0)
(1083.46 1659.44 0)
(-119.923 677.127 0)
(95.3081 332.901 0)
(1574.25 971.283 0)
(-1508.3 1371.87 0)
(-396.85 140.346 0)
(-461.861 391.587 0)
(325.299 811.258 0)
(-119.193 2654.96 0)
(-94.8833 523.575 0)
(356.138 220.822 0)
(1681.57 1511.34 0)
(-681.385 1843.14 0)
(1483.93 1071.54 0)
(1416.48 1489.42 0)
(-1170.6 2171.51 0)
(290.59 318.027 0)
(-1411.52 1909.64 0)
(1079.06 2315.44 0)
(-1376.04 1862.93 0)
(-11.02 93.2549 0)
(29.467 2454.3 0)
(-1025.94 2472.91 0)
(37.6697 249.296 0)
(-92.9972 347.294 0)
(1289.2 2312.19 0)
(220.855 2562.57 0)
(107.332 58.9934 0)
(872.629 2231.93 0)
(34.0097 239.833 0)
(18.8914 2447.83 0)
(-32.289 1177.15 0)
(-545.165 2525.39 0)
(32.1373 235.171 0)
(-1581.84 941.286 0)
(1256.79 2266.14 0)
(275.516 1354.91 0)
(-908.248 2494.12 0)
(149.282 783.126 0)
(1333.5 2220.92 0)
(-561.067 2512.16 0)
(156.99 1452.78 0)
(1439.39 2174.7 0)
(96.5541 2405.2 0)
(-551.519 2520.05 0)
(150.803 2447.88 0)
(1.42685 -0.658811 0)
(180.544 2226.23 0)
(-1186.49 2295.85 0)
(-33.6467 1063.4 0)
(74.3578 262.656 0)
(-522.471 2608.25 0)
(-340.969 2626.06 0)
(-116.485 1195.77 0)
(-49.2859 2519.74 0)
(-20.3653 76.803 0)
(340.309 134.384 0)
(-26.8185 333.656 0)
(1000.9 2342.64 0)
(126.158 809.836 0)
(-1156.18 2182.83 0)
(478.028 812.547 0)
(558.525 2492.38 0)
(-972.041 1702.06 0)
(364.674 2547.93 0)
(151.693 537.695 0)
(419.563 2586.07 0)
(-33.9706 131.425 0)
(37.6177 2467.69 0)
(-24.1568 1198.02 0)
(-750.57 252.302 0)
(-1491.92 1357.59 0)
(6.24354 2.90589 0)
(613.435 332.924 0)
(-827.337 274.041 0)
(451.859 180.649 0)
(0.294685 3.47544 0)
(-884.555 2082.22 0)
(1392.3 2208.84 0)
(-1007.04 2295.29 0)
(92.0911 2576.25 0)
(1206.2 1250.71 0)
(-627.813 469.179 0)
(165.43 722.543 0)
(-218.807 2573.54 0)
(1417.48 1357.57 0)
(106.517 395.043 0)
(-6.74532 401.835 0)
(-42.1123 219.959 0)
(945.227 2245.58 0)
(-84.6662 296.763 0)
(-180.945 2153.81 0)
(-629.154 1311.55 0)
(-216.072 2418.75 0)
(268.416 2647.06 0)
(1566 1000.53 0)
(9.71189 35.6484 0)
(-102.873 2635.18 0)
(80.8877 697.649 0)
(-55.2797 292.588 0)
(-591.293 2496.5 0)
(-966.56 404.395 0)
(126.926 481.374 0)
(-465.936 2538.19 0)
(19.0082 69.8875 0)
(934.333 300.722 0)
(450.569 1808.51 0)
(-228.537 2830.28 0)
(-150.476 509.238 0)
(-468.176 511.24 0)
(-586.727 2519.8 0)
(-46.5211 2460.85 0)
(109.844 34.4979 0)
(110.186 360.688 0)
(751.246 2363.71 0)
(185.696 140.997 0)
(80.4653 298.306 0)
(346.094 2392.8 0)
(881.777 2480.44 0)
(1499.94 1131.77 0)
(107.191 1193.46 0)
(-450.9 2562.46 0)
(187.183 2235.19 0)
(1147.29 2393.34 0)
(33.3618 956.607 0)
(338.94 2550.38 0)
(-92.484 2449.17 0)
(166.297 939.184 0)
(-182.689 1697.64 0)
(-1035.8 720.484 0)
(-479.865 2569.13 0)
(44.1769 951.095 0)
(-288.467 1690.78 0)
(-2.66799 435.574 0)
(215.911 2375.81 0)
(1289.09 2305.9 0)
(-1280.2 2301.92 0)
(-8.55351 135.001 0)
(-451.129 2564.35 0)
(76.2635 267.097 0)
(433.155 2589.07 0)
(443.561 2402.37 0)
(-86.7711 2634.76 0)
(-705.325 706.36 0)
(507.047 2017.66 0)
(-23.5171 761.789 0)
(0.63125 0.943859 0)
(97.4565 1820.6 0)
(-1615.64 1556.3 0)
(-185.524 2206.43 0)
(-1739.05 1257.64 0)
(1044.87 1712.54 0)
(701.211 2323.4 0)
(-443.445 2515.43 0)
(33.8675 117.333 0)
(-473.009 1937.9 0)
(388.403 2620.83 0)
(-1.39952 442.621 0)
(-1080.55 2411.34 0)
(-3.52568 21.2403 0)
(465.611 370.873 0)
(-1672.36 1115.44 0)
(-74.5845 275.326 0)
(41.2968 200.924 0)
(-55.8708 432.695 0)
(0.30744 0.738008 0)
(-1215.16 2184.88 0)
(15.8612 49.8697 0)
(-908.867 1353.11 0)
(1216.14 2333.68 0)
(-1454.3 2056.72 0)
(-1499.45 1385.46 0)
(-552.749 2421.64 0)
(48.3815 957.611 0)
(109.382 2659.86 0)
(-1566.42 929.713 0)
(466.656 1545.68 0)
(-33.0224 215.91 0)
(394.101 2388.36 0)
(-18.1476 69.9968 0)
(-419.59 1830.69 0)
(637.882 293.713 0)
(-555.863 2234 0)
(-755.246 2475.28 0)
(-458.531 249.06 0)
(-65.7847 216.185 0)
(1344.99 2021.36 0)
(461.261 113.545 0)
(-20.0892 1001.54 0)
(-1209.04 703.732 0)
(131.626 492.487 0)
(-28.8223 580.777 0)
(801.561 321.542 0)
(327.462 2566.11 0)
(110.416 2658.8 0)
(-82.8646 1186.86 0)
(550.615 364.014 0)
(1571.59 1690.85 0)
(-15.8194 751.703 0)
(-174.085 2054.42 0)
(-1329 2291.14 0)
(-1537.99 1262.88 0)
(-1470.33 2029.23 0)
(1473.86 693.36 0)
(-1622.06 1668.8 0)
(8.44847 33.8041 0)
(247.328 2567.48 0)
(402.729 1857.87 0)
(-30.5992 119.215 0)
(-71.0787 619.525 0)
(39.568 279.196 0)
(-222.97 475.217 0)
(-166.181 775.636 0)
(547.816 2392.06 0)
(86.2344 304.127 0)
(1335.76 2222.41 0)
(581.147 397.505 0)
(1019.29 2387.32 0)
(81.1069 2450.07 0)
(-1012.06 448.682 0)
(1.98987 2.28863 0)
(36.7556 964.525 0)
(-126.668 693.605 0)
(-573.254 411.095 0)
(-1377.67 1883.05 0)
(-8.33533 41.1244 0)
(1514.92 1658.37 0)
(-423.587 368.557 0)
(-46.1429 2530.39 0)
(-8.30116 2261.57 0)
(18.0489 230.617 0)
(-752.04 235.271 0)
(1439.77 2073.96 0)
(1058.78 409.56 0)
(-232.307 782.486 0)
(36.9468 275.231 0)
(762.502 1468.69 0)
(-70.5745 285.129 0)
(57.7493 1144.75 0)
(1268.04 2228.9 0)
(737.311 2536.48 0)
(632.312 2230.88 0)
(47.0722 397.196 0)
(-1242.04 2328.82 0)
(-348.457 298.604 0)
(284.287 2625.39 0)
(-556.198 2422.95 0)
(35.9908 131.713 0)
(678.455 296.552 0)
(193.697 2572.32 0)
(-1282.3 2233.3 0)
(-1193.41 1675.31 0)
(64.6894 2792.34 0)
(-80.8238 641.319 0)
(691.755 2007.17 0)
(-768.145 2475.23 0)
(-35.4006 881.318 0)
(323.317 2470.66 0)
(-11.063 37.3507 0)
(-412.889 2595.58 0)
(356.312 2658.36 0)
(23.5666 497.08 0)
(737.075 2297.56 0)
(52.6126 381.827 0)
(-98.2667 2456.74 0)
(604.239 260.013 0)
(442.141 2583.28 0)
(-1131.11 2050.63 0)
(-391.938 294.148 0)
(217.976 2398.21 0)
(53.4097 229.242 0)
(-451.353 166.137 0)
(-474.537 2619.02 0)
(-539.749 2537.06 0)
(313.524 2447.03 0)
(259.83 2669.92 0)
(138.508 680.131 0)
(1087.2 735.31 0)
(599.748 2528.01 0)
(-95.3538 358.988 0)
(-31.8953 727.25 0)
(-731.428 2051.31 0)
(-19.3777 76.9252 0)
(233.416 2319.36 0)
(-1176.98 2056.08 0)
(73.6534 269.533 0)
(-150.473 2479.72 0)
(6.91432 30.6475 0)
(28.3855 2661.57 0)
(-38.9072 2310.45 0)
(423.832 837.18 0)
(452.363 1433.26 0)
(668.424 2073.76 0)
(-20.7363 1180.88 0)
(-857.449 2363.6 0)
(-389.276 462.093 0)
(-647.223 1908.58 0)
(-1630.39 1330.63 0)
(-1295.66 2201.92 0)
(-594.89 151.27 0)
(-170.621 81.3612 0)
(1426.35 1905.15 0)
(-103.797 2573.54 0)
(1061.42 2417.62 0)
(-148.057 2827.41 0)
(109.554 388.152 0)
(538.598 1264.05 0)
(226.646 1804.71 0)
(-258.344 2803.35 0)
(-1255.06 2211.72 0)
(113.825 30.2475 0)
(79.374 686.503 0)
(-5.95886 7.24803 0)
(1412.37 1733.34 0)
(104.191 372.963 0)
(967.697 2260.7 0)
(1376.65 1746.82 0)
(68.8327 2666.22 0)
(-24.9912 91.6697 0)
(-158.649 684.952 0)
(419.858 2546.72 0)
(-70.0095 820.707 0)
(1328.01 2043.26 0)
(50.8839 1826.35 0)
(1241.39 2194.37 0)
(1132.81 2364.53 0)
(348.751 2503.15 0)
(-74.446 2635.48 0)
(-510.956 605.168 0)
(40.7534 2534.36 0)
(-606.572 2404.02 0)
(-631.088 2075.71 0)
(-68.985 289.456 0)
(74.1142 234.216 0)
(-230.478 2825.78 0)
(1163.38 2349.14 0)
(1142.43 1624.47 0)
(600.937 2071.11 0)
(724.252 1798.39 0)
(-2.8936 19.7239 0)
(-1193.15 1636.36 0)
(42.9449 2497.68 0)
(700.603 2493.53 0)
(1.65119 26.9422 0)
(-105.539 374.156 0)
(135.432 673.286 0)
(-449.504 2517.14 0)
(-33.4793 1070.73 0)
(242.962 2303.62 0)
(-103.348 45.6542 0)
(557.229 2491.75 0)
(-199.894 1217.2 0)
(-133.456 484.798 0)
(1104.39 2002.2 0)
(-6.70703 190.227 0)
(-118.639 2680.64 0)
(801.998 1724.45 0)
(-1364.15 1023.94 0)
(894.344 1951.04 0)
(-354.314 1500.12 0)
(-183.542 467.449 0)
(-47.2269 177.072 0)
(-1507.49 1955.24 0)
(-1379.1 602.454 0)
(-829.369 1299.54 0)
(1005.98 1303.65 0)
(172.513 2185.47 0)
(-525.142 2218.35 0)
(14.2223 2670.01 0)
(312.907 2665.46 0)
(106.917 383.655 0)
(-494.593 2591.65 0)
(-699.935 417.816 0)
(-1553.74 1573.34 0)
(371.438 1690.85 0)
(196.662 64.3059 0)
(-482.086 485.11 0)
(-1651.01 1027.66 0)
(27.2528 679.133 0)
(49.7378 171.205 0)
(-942.28 2145.75 0)
(848.634 2342.09 0)
(333.584 2402.09 0)
(606.789 2395.28 0)
(979.502 1481.59 0)
(1310.8 1106.41 0)
(486.414 2438.49 0)
(-480.128 2567.03 0)
(-712.952 2412.86 0)
(348.615 298.704 0)
(352.561 2686.8 0)
(-36.4691 2305.72 0)
(-1269.1 1020.7 0)
(842.435 415.549 0)
(-11.6867 102.495 0)
(1103.3 2289.28 0)
(38.6478 2455.35 0)
(-91.1696 459.849 0)
(1190.09 1917.19 0)
(49.3001 2501.68 0)
(658.945 1753.31 0)
(166.968 702.049 0)
(-31.7233 1753.03 0)
(326.129 2633.67 0)
(325.227 2635.11 0)
(212.916 2288.89 0)
(-209.093 2450.12 0)
(1164.22 1713.28 0)
(171.703 1483.7 0)
(-514.616 125.985 0)
(539.393 2371.04 0)
(44.8904 163.835 0)
(463.359 2601.86 0)
(866.167 1965.17 0)
(-1155.66 2316.24 0)
(777.7 2443.17 0)
(-4.97067 5.90407 0)
(17.7721 2578.65 0)
(990.717 2347.14 0)
(19.1491 2577.84 0)
(-4.05162 29.6788 0)
(-124.503 666.082 0)
(-773.424 276.818 0)
(-760.106 279.252 0)
(35.7455 149.558 0)
(0.00014622 0.000185108 0)
(-1281.6 2276.51 0)
(1377.7 1235.82 0)
(115.486 2133.88 0)
(502.269 128.914 0)
(-1298.9 2129.93 0)
(3.97954 972.063 0)
(743.521 222.917 0)
(1526.79 2176.58 0)
(52.9483 370.863 0)
(-17.3363 1500.28 0)
(-1577.62 1033.87 0)
(-12.5311 105.149 0)
(-22.8972 72.2397 0)
(1336.55 2044.88 0)
(-407.617 1758.78 0)
(-600.869 1229.95 0)
(-1069.99 2407.84 0)
(-386.792 2436.81 0)
(204.206 1869.59 0)
(-1176.15 2254.53 0)
(1152.1 2284.5 0)
(-421.662 1514.78 0)
(-89.5118 334.527 0)
(208.519 2408.92 0)
(-68.8419 447.042 0)
(-1174.4 2157.16 0)
(1070.24 378.526 0)
(92.016 965.667 0)
(1058.5 2416.1 0)
(-1729.61 1065.3 0)
(-1505.83 1874.38 0)
(132.166 795.786 0)
(-160.685 575.497 0)
(-240.562 2532.34 0)
(89.789 1924.07 0)
(-266.788 1856.75 0)
(-945.388 322.127 0)
(-1622.35 1662.27 0)
(-470.652 153.383 0)
(-1195.84 490.888 0)
(1285.33 743.674 0)
(-39.0734 2579.42 0)
(-122.948 654.926 0)
(-300.404 2053.69 0)
(-425.253 2460.93 0)
(-829.896 2186.06 0)
(79.5318 719.025 0)
(-72.3627 628.999 0)
(1208.07 2274.58 0)
(1156.42 2207.44 0)
(-79.3021 585.658 0)
(990.365 1326.29 0)
(-1463.24 1984.63 0)
(-116.651 411.215 0)
(651.81 2379.88 0)
(-154.739 836.745 0)
(496.518 2497.66 0)
(-47.8305 724.706 0)
(110.745 2104.15 0)
(259.027 2475.28 0)
(-382.325 2546.22 0)
(1051.5 2313.4 0)
(0.133714 0.132357 0)
(38.2809 1442.42 0)
(-35.1564 339.927 0)
(-423.053 2556.48 0)
(-281.555 1843.31 0)
(-34.8327 333.057 0)
(-323.855 2588.83 0)
(1281.46 2240.9 0)
(545.25 2368.26 0)
(-1180.89 420.89 0)
(-102.172 371.069 0)
(-590.133 167.345 0)
(46.1064 364.714 0)
(1438.78 2179.74 0)
(-373.312 2576.32 0)
(38.6335 2455 0)
(171.321 2503.1 0)
(-801.632 1941.58 0)
(383.731 2470.44 0)
(-108.841 2664.2 0)
(67.0445 1475.01 0)
(601.504 2531.62 0)
(-1223.12 920.309 0)
(-303.718 2574.49 0)
(-1178.9 439.283 0)
(421.738 2504.62 0)
(3.2586 1132.02 0)
(46.3804 408.938 0)
(-673.061 2101.22 0)
(16.4919 226.364 0)
(292.361 1376.45 0)
(-7.3087 38.7681 0)
(-1496.33 1892.72 0)
(434.832 377.152 0)
(-435.533 2572.87 0)
(-70.2925 804.988 0)
(511.489 2485.42 0)
(-496.154 275.166 0)
(347.901 2692 0)
(-388.187 2319.67 0)
(-588.668 2591.42 0)
(-1314.89 860.62 0)
(212.75 2364.58 0)
(-566.573 2564.82 0)
(1676.34 1544.54 0)
(150.246 843.972 0)
(31.0598 111.926 0)
(-193.851 442.075 0)
(-1485.39 1294.33 0)
(-189.654 2433.92 0)
(87.5455 1000.08 0)
(97.751 1476.63 0)
(-485.258 111.042 0)
(0.0423524 0.165825 0)
(-382.536 270.065 0)
(1452.87 1974.83 0)
(-1209.83 2225.22 0)
(1035.77 342.512 0)
(73.1413 2365.46 0)
(368.092 2627.69 0)
(836.86 1733.2 0)
(763.643 2522.44 0)
(435.674 1821.42 0)
(-20.9558 325.29 0)
(-217.521 1454.65 0)
(158.168 824.979 0)
(93.6488 1933.92 0)
(1618.55 1641.35 0)
(-186.973 2573.99 0)
(182.857 2641.76 0)
(385.58 102.254 0)
(-1225.96 2217.17 0)
(-196.603 2556.36 0)
(61.5904 208.47 0)
(-1006.36 554.42 0)
(-187.723 84.853 0)
(-604.849 463.939 0)
(-176.804 2418.29 0)
(-57.1417 279.06 0)
(320.353 1673.92 0)
(37.9222 331.24 0)
(221.041 2287.87 0)
(118.481 2586.42 0)
(-99.7014 226.314 0)
(17.04 1099.4 0)
(-937.482 2165.02 0)
(-13.8512 450.713 0)
(330.914 368.059 0)
(-95.506 2625.88 0)
(704.254 2474.27 0)
(20.1729 2660.58 0)
(104.603 79.2125 0)
(-290.764 2035.88 0)
(788.77 2224.46 0)
(403.897 562.692 0)
(-1363.28 588.13 0)
(421.249 2504.3 0)
(-645.346 196.495 0)
(-404.339 2261.87 0)
(69.197 733.17 0)
(-457.268 2622.63 0)
(-1020.65 2438.28 0)
(-123.131 2398.82 0)
(-390.18 2567.7 0)
(580.276 2590.72 0)
(961.499 431.905 0)
(233.932 2650.43 0)
(-764.94 2544.93 0)
(95.0877 2497.34 0)
(0.0490422 0.0882319 0)
(-1566.38 924.917 0)
(-208.276 1324.88 0)
(-1583.46 1711.7 0)
(76.3982 729.356 0)
(42.024 407.014 0)
(-58.5202 294.637 0)
(365.869 2489.96 0)
(1258.42 494.632 0)
(138.9 2419.93 0)
(-21.7103 566.412 0)
(201.427 2686.22 0)
(123.595 2620.02 0)
(-718.329 2375.36 0)
(1536.19 1864.04 0)
(-1443.05 1743.91 0)
(-1262.94 2284.85 0)
(1434.61 1971.2 0)
(1557.18 2141.4 0)
(700.546 1337.29 0)
(-1239.17 2160.35 0)
(81.5848 307.173 0)
(-1039.95 1080.28 0)
(1240.37 2112.27 0)
(447.501 2480.03 0)
(-447.02 2379.13 0)
(-114.176 1551.67 0)
(773.183 2216.4 0)
(-31.5272 118.72 0)
(365.798 2489.17 0)
(1213.74 1577.77 0)
(-420.692 2372.5 0)
(-36.6854 208.633 0)
(42.0285 190.811 0)
(-1361.52 2119.81 0)
(1441.38 1970.43 0)
(-24.111 2608.78 0)
(1167.74 1200.72 0)
(1137.53 2387.15 0)
(-1522.26 1530.46 0)
(-1583.17 1715.95 0)
(-10.708 445.419 0)
(1534.07 715.91 0)
(-32.5473 156.585 0)
(722.307 208.2 0)
(-1156.46 2271.64 0)
(-478.029 2610.45 0)
(1668.19 1625.45 0)
(1242.36 2196.54 0)
(1.3062 -1.32876 0)
(-65.4254 229.405 0)
(-232.666 404.726 0)
(-1497.22 1317.94 0)
(-1652.63 1497.37 0)
(-442.935 172.976 0)
(158.396 669.884 0)
(-28.9393 2646.54 0)
(200.849 2762.92 0)
(1220.4 2013.15 0)
(912.118 549.942 0)
(1.2415 1.87933 0)
(64.7896 2400.76 0)
(-19.5088 91.9157 0)
(863.135 2573.04 0)
(1304.15 2273.73 0)
(1232.59 2199.06 0)
(-67.5183 2458.82 0)
(861.195 2338.03 0)
(732.707 1914.5 0)
(914.1 286.001 0)
(63.1945 726.627 0)
(-60.2625 226.42 0)
(-351.054 109.525 0)
(-1417.08 1826.82 0)
(-118.944 2505.1 0)
(68.1314 1845.16 0)
(-48.9648 2659.76 0)
(-759.607 1844.82 0)
(1427.39 829.945 0)
(-1347.35 1227.76 0)
(1542.68 1870.94 0)
(870.673 1978.62 0)
(-18.0794 294.663 0)
(568.143 2039.64 0)
(154.859 2644.07 0)
(-1185.96 2364.9 0)
(-176.307 792.039 0)
(-943.55 591.986 0)
(1521.04 1222.17 0)
(416.376 2521.73 0)
(1018.62 2226.26 0)
(-230.397 2104.17 0)
(611.203 2482.84 0)
(827.384 1664.37 0)
(629.216 2009.18 0)
(1358 1996.83 0)
(20.3827 267.689 0)
(-148.711 517.972 0)
(-132.776 861.177 0)
(155.294 574.353 0)
(1408.35 2140.47 0)
(34.1481 328.78 0)
(14.068 1068.73 0)
(446.634 486.828 0)
(17.4355 2441.04 0)
(1397.11 2206.93 0)
(-636.309 307.564 0)
(1453.45 1632.4 0)
(-82.4287 284.465 0)
(776.75 2458.37 0)
(1011.13 2433.69 0)
(-381.14 2627.41 0)
(1669.75 1637.16 0)
(458.779 2502.76 0)
(48.0385 370.461 0)
(-786.093 2443.37 0)
(1291.04 1726.33 0)
(-31.614 158.801 0)
(142.222 962.447 0)
(49.2726 463.424 0)
(392.271 837.924 0)
(1521.03 1911.38 0)
(-107.653 884.017 0)
(-1067 2232.02 0)
(-480.667 2581.88 0)
(-358.166 2561.23 0)
(-797.687 2517.16 0)
(816.723 270.586 0)
(-963.998 2317.03 0)
(363.147 133.466 0)
(-365.625 188.055 0)
(-1085 2357.75 0)
(-76.3918 612.304 0)
(-1551.84 2110.62 0)
(-21.1102 1438.24 0)
(163.558 2605.32 0)
(1043.24 978.825 0)
(-83.3408 458.136 0)
(832.413 1629.36 0)