0 	0 	0 	0 	0 	0
-3.34597e-021 	8.49561e-005 	1.99971e-019 	-8.90114e-005 	1.62695 	0
1.85288e-021 	0.000165142 	1.99971e-019 	-0.0234572 	3.34998 	0
1.79995e-021 	0.000165952 	1.99971e-019 	-0.0220172 	3.36236 	0
1.58819e-021 	0.000167208 	1.99971e-019 	-0.0202266 	3.37357 	0
3.38813e-021 	0.000246429 	1.99971e-019 	-0.0231686 	3.71523 	0
-3.38813e-021 	0.000286935 	1.99971e-019 	-0.0623373 	4.13546 	0
-4.95617e-021 	0.000324576 	1.99971e-019 	-0.0167814 	4.43214 	0
-8.09903e-021 	0.000386443 	1.99971e-019 	0.021336 	5.57091 	0
-8.94607e-021 	0.00039981 	1.99971e-019 	0.023154 	5.79 	0
-7.6233e-021 	0.000409413 	1.99971e-019 	0.00419174 	6.0453 	0
-3.38813e-021 	0.000474922 	1.99971e-019 	0.0402034 	7.79632 	0
-1.29248e-020 	0.000525915 	1.99971e-019 	-0.0584549 	9.82706 	0
-1.35525e-020 	0.000545077 	1.99971e-019 	-0.0592057 	10.6065 	0
-1.39213e-020 	0.000577816 	1.99971e-019 	-0.175529 	12.2398 	0
-1.52466e-020 	0.000613877 	1.99971e-019 	-0.30091 	14.0042 	0
-1.69407e-020 	0.000636855 	1.99971e-019 	-0.423279 	15.1172 	0
-2.03288e-020 	0.000680922 	1.99971e-019 	-0.660949 	17.3267 	0
-2.11758e-020 	0.000744184 	1.99971e-019 	-0.882065 	20.0976 	0
-2.15993e-020 	0.000747971 	1.99971e-019 	-0.913589 	20.2705 	0
-2.07523e-020 	0.000754798 	1.99971e-019 	-0.949767 	20.5472 	0
-2.37169e-020 	0.000812401 	1.99971e-019 	-1.1044 	22.9353 	0
-2.44515e-020 	0.000841573 	1.99971e-019 	-1.06702 	24.1551 	0
-2.82213e-020 	0.000874088 	1.99971e-019 	-1.23711 	25.5631 	0
-2.89624e-020 	0.0009338 	1.99971e-019 	-1.30369 	28.3977 	0
-2.89326e-020 	0.000934775 	1.99971e-019 	-1.31197 	28.4472 	0
-2.8905e-020 	0.000936905 	1.99971e-019 	-1.32104 	28.5679 	0
-2.82237e-020 	0.000994329 	1.99971e-019 	-1.43964 	31.9542 	0
-2.99177e-020 	0.00102109 	1.99971e-019 	-1.38487 	33.7086 	0
-3.28103e-020 	0.00105169 	1.99971e-019 	-1.54959 	35.8234 	0
-3.59866e-020 	0.00110517 	1.99971e-019 	-1.57837 	39.7675 	0
-3.58085e-020 	0.00110764 	1.99971e-019 	-1.59708 	39.9618 	0
-3.62107e-020 	0.00111255 	1.99971e-019 	-1.60917 	40.369 	0
-3.53024e-020 	0.00116181 	1.99971e-019 	-1.6279 	44.6104 	0
-3.53024e-020 	0.00118635 	1.99971e-019 	-1.54387 	46.8076 	0
-4.04544e-020 	0.00121509 	1.99971e-019 	-1.64884 	49.4782 	0
-4.55366e-020 	0.00126354 	1.99971e-019 	-1.55995 	54.1721 	0
-4.5688e-020 	0.00126595 	1.99971e-019 	-1.5652 	54.4205 	0
-4.61633e-020 	0.00127065 	1.99971e-019 	-1.5684 	54.9005 	0
-4.40484e-020 	0.00131575 	1.99971e-019 	-1.51648 	59.6879 	0
-4.57425e-020 	0.00133853 	1.99971e-019 	-1.4441 	62.1417 	0
-4.60365e-020 	0.00136471 	1.99971e-019 	-1.4966 	64.9924 	0
-4.85776e-020 	0.00141004 	1.99971e-019 	-1.32636 	70.151 	0
-4.87829e-020 	0.00141176 	1.99971e-019 	-1.33258 	70.3633 	0
-4.87044e-020 	0.00141533 	1.99971e-019 	-1.32405 	70.7807 	0
-4.78399e-020 	0.00145799 	1.99971e-019 	-1.22704 	75.9469 	0
-4.78399e-020 	0.00147866 	1.99971e-019 	-1.15598 	78.4578 	0
-4.81103e-020 	0.00150232 	1.99971e-019 	-1.15653 	81.3947 	0
-5.10749e-020 	0.00154483 	1.99971e-019 	-1.03639 	86.728 	0
-5.12294e-020 	0.00154543 	1.99971e-019 	-1.03613 	86.8053 	0
-5.12455e-020 	0.00154657 	1.99971e-019 	-1.03383 	86.9542 	0
-5.27756e-020 	0.00158764 	1.99971e-019 	-0.899024 	92.4249 	0
-5.36226e-020 	0.00160878 	1.99971e-019 	-0.803502 	95.2301 	0
-5.51794e-020 	0.00162912 	1.99971e-019 	-0.801591 	97.972 	0
-5.80218e-020 	0.00166732 	1.99971e-019 	-0.677049 	103.187 	0
-5.80218e-020 	0.00166886 	1.99971e-019 	-0.67146 	103.4 	0
-5.79159e-020 	0.00166968 	1.99971e-019 	-0.667209 	103.515 	0
-5.61955e-020 	0.00170776 	1.99971e-019 	-0.579444 	108.967 	0
-5.36544e-020 	0.00172866 	1.99971e-019 	-0.496495 	111.963 	0
-5.20092e-020 	0.00174596 	1.99971e-019 	-0.512806 	114.465 	0
-5.20925e-020 	0.0017779 	1.99971e-019 	-0.407491 	119.193 	0
-5.2516e-020 	0.00178256 	1.99971e-019 	-0.391585 	119.889 	0
-5.2516e-020 	0.00178505 	1.99971e-019 	-0.379716 	120.264 	0
-5.26435e-020 	0.00181855 	1.99971e-019 	-0.327292 	125.395 	0
-5.43376e-020 	0.00184057 	1.99971e-019 	-0.231753 	128.829 	0
-5.24645e-020 	0.00185358 	1.99971e-019 	-0.211324 	130.874 	0
-5.33631e-020 	0.0018797 	1.99971e-019 	-0.199224 	135.055 	0
-5.44743e-020 	0.00188773 	1.99971e-019 	-0.17868 	136.348 	0
-5.53214e-020 	0.00189168 	1.99971e-019 	-0.159093 	136.998 	0
-5.4663e-020 	0.00192066 	1.99971e-019 	-0.138322 	141.831 	0
-5.551e-020 	0.00194082 	1.99971e-019 	-0.0782842 	145.274 	0
-5.56148e-020 	0.00195274 	1.99971e-019 	-0.0922546 	147.327 	0
-5.2516e-020 	0.00197421 	1.99971e-019 	-0.0567613 	151.12 	0
-5.25717e-020 	0.00198403 	1.99971e-019 	-0.0277758 	152.858 	0
-5.17246e-020 	0.00198941 	1.99971e-019 	-0.00287773 	153.829 	0
-5.1242e-020 	0.00201476 	1.99971e-019 	-0.0512814 	158.427 	0
-5.2089e-020 	0.00203493 	1.99971e-019 	-0.0248316 	162.21 	0
-5.16805e-020 	0.00204453 	1.99971e-019 	-0.0545795 	164.023 	0
-5.20925e-020 	0.00206227 	1.99971e-019 	-0.0540858 	167.505 	0
-5.1669e-020 	0.00207317 	1.99971e-019 	-0.0364755 	169.642 	0
-5.1669e-020 	0.00207923 	1.99971e-019 	-0.00510666 	170.869 	0
-5.27189e-020 	0.00210118 	1.99971e-019 	-0.0105633 	175.314 	0
-5.14483e-020 	0.00212297 	1.99971e-019 	-1.53367 	177.51 	0
-5.17263e-020 	0.00212849 	1.99971e-019 	0.0244035 	181.036 	0
-5.1669e-020 	0.00213857 	1.99971e-019 	0.0981433 	182.949 	0
-5.11911e-020 	0.00215502 	1.99971e-019 	0.650018 	186.696 	0
-5.0344e-020 	0.00216369 	1.99971e-019 	1.29804 	190.488 	0
-5.16856e-020 	0.00218091 	1.99971e-019 	0.657578 	192.551 	0
-5.0415e-020 	0.00220231 	1.99971e-019 	-1.84135 	194.974 	0
-5.01013e-020 	0.00220628 	1.99971e-019 	-3.1253 	199.111 	0
-4.99749e-020 	0.0022138 	1.99971e-019 	-0.00820797 	200.586 	0
-5.02753e-020 	0.00223081 	1.99971e-019 	0.554973 	204.463 	0
-4.94282e-020 	0.00224032 	1.99971e-019 	-0.113927 	206.61 	0
-5.17846e-020 	0.00225455 	1.99971e-019 	-1.50581 	210.871 	0
-5.24199e-020 	0.00227622 	1.99971e-019 	-0.912849 	214.9 	0
-5.20641e-020 	0.00227809 	1.99971e-019 	-1.5956 	217.055 	0
-5.18808e-020 	0.00228155 	1.99971e-019 	-1.06915 	221.146 	0
-5.2516e-020 	0.00230055 	1.99971e-019 	0.207558 	222.998 	0
-5.2516e-020 	0.00231126 	1.99971e-019 	0.774795 	227.105 	0
-5.252e-020 	0.00232249 	1.99971e-019 	-2.02919 	229.678 	0
-5.21984e-020 	0.00234187 	1.99971e-019 	1.32097 	231.259 	0
-5.19136e-020 	0.00234404 	1.99971e-019 	1.91255 	235.39 	0
-5.21254e-020 	0.00234526 	1.99971e-019 	2.61925 	239.597 	0
-5.2235e-020 	0.00236485 	1.99971e-019 	1.82937 	241.898 	0
-5.35056e-020 	0.00237739 	1.99971e-019 	-1.04184 	244.643 	0
-5.40496e-020 	0.00238521 	1.99971e-019 	-2.64949 	249.314 	0
-5.46336e-020 	0.00240097 	1.99971e-019 	1.18751 	250.871 	0
-5.43193e-020 	0.00240496 	1.99971e-019 	1.88837 	255.164 	0
-5.43193e-020 	0.00240707 	1.99971e-019 	2.69517 	259.613 	0
-5.2116e-020 	0.0024257 	1.99971e-019 	2.04784 	262.061 	0
-5.33866e-020 	0.00243488 	1.99971e-019 	0.704296 	267.023 	0
-5.31997e-020 	0.00244358 	1.99971e-019 	-2.12055 	269.84 	0
-5.20925e-020 	0.00245791 	1.99971e-019 	0.576459 	273.98 	0
-5.17955e-020 	0.00246134 	1.99971e-019 	1.98643 	275.963 	0
-5.15837e-020 	0.0024634 	1.99971e-019 	2.67697 	280.561 	0
-5.17495e-020 	0.00247897 	1.99971e-019 	1.87005 	283.035 	0
-5.17495e-020 	0.00249024 	1.99971e-019 	-1.14916 	285.997 	0
-5.21023e-020 	0.00249621 	1.99971e-019 	-2.86799 	291.021 	0
-5.10337e-020 	0.00250679 	1.99971e-019 	0.986675 	292.895 	0
-5.11683e-020 	0.00251298 	1.99971e-019 	1.71079 	297.648 	0
-5.07448e-020 	0.00251644 	1.99971e-019 	2.54523 	302.529 	0
-5.15314e-020 	0.00252957 	1.99971e-019 	1.67798 	305.206 	0
-5.11079e-020 	0.00254166 	1.99971e-019 	-1.63177 	308.363 	0
-5.22259e-020 	0.00254543 	1.99971e-019 	-3.17755 	313.755 	0
-5.1669e-020 	0.00255292 	1.99971e-019 	0.763525 	315.546 	0
-5.14908e-020 	0.00256094 	1.99971e-019 	1.48113 	320.56 	0
-5.10673e-020 	0.00256523 	1.99971e-019 	0.655185 	323.375 	0
-5.09501e-020 	0.00257596 	1.99971e-019 	-0.913497 	328.857 	0
-5.0822e-020 	0.00258717 	1.99971e-019 	-0.139112 	334.097 	0
-5.07306e-020 	0.00259056 	1.99971e-019 	-1.00587 	336.807 	0
-5.01867e-020 	0.00259682 	1.99971e-019 	-0.362771 	342.202 	0
-5.05917e-020 	0.00260497 	1.99971e-019 	1.29301 	344.578 	0
-5.10152e-020 	0.00260958 	1.99971e-019 	2.02094 	349.976 	0
-5.16374e-020 	0.00261874 	1.99971e-019 	1.04303 	352.862 	0
-5.14257e-020 	0.00263091 	1.99971e-019 	-2.55353 	356.249 	0
-5.16184e-020 	0.00263224 	1.99971e-019 	-4.68198 	362.078 	0
-5.15631e-020 	0.00263447 	1.99971e-019 	-0.285541 	364.328 	0
-5.15941e-020 	0.00264536 	1.99971e-019 	0.410903 	369.839 	0
-5.11706e-020 	0.00265172 	1.99971e-019 	-0.562662 	372.912 	0
-5.18329e-020 	0.00265813 	1.99971e-019 	-2.64507 	378.91 	0
-5.16161e-020 	0.00266994 	1.99971e-019 	1.94753 	381.21 	0
-5.16161e-020 	0.00267076 	1.99971e-019 	2.73536 	386.9 	0
-5.16161e-020 	0.00267123 	1.99971e-019 	3.49552 	392.788 	0
-5.1669e-020 	0.00268287 	1.99971e-019 	-0.456968 	396.44 	0
-5.20925e-020 	0.00269036 	1.99971e-019 	0.301323 	402.45 	0
-5.22175e-020 	0.00269466 	1.99971e-019 	-3.67148 	406.126 	0
-5.2516e-020 	0.0027024 	1.99971e-019 	1.09887 	408.509 	0
-5.26373e-020 	0.00270627 	1.99971e-019 	1.93177 	414.526 	0
-5.26373e-020 	0.00270844 	1.99971e-019 	2.80715 	420.706 	0
-5.13663e-020 	0.00271745 	1.99971e-019 	1.78095 	424.027 	0
-5.1578e-020 	0.00272578 	1.99971e-019 	-2.18733 	427.955 	0
-5.15532e-020 	0.00272834 	1.99971e-019 	-4.45205 	434.636 	0
-5.14573e-020 	0.00273244 	1.99971e-019 	-0.852281 	440.621 	0
-5.12455e-020 	0.00273891 	1.99971e-019 	1.04566 	443.499 	0
-5.18808e-020 	0.00274291 	1.99971e-019 	1.7865 	450.041 	0
-5.23416e-020 	0.00274927 	1.99971e-019 	-2.58366 	454.083 	0
-5.24739e-020 	0.00275926 	1.99971e-019 	-3.76039 	457.713 	0
-5.29206e-020 	0.00276931 	1.99971e-019 	-0.320527 	474.405 	0
-5.29396e-020 	0.00277494 	1.99971e-019 	-1.45295 	478.21 	0
-5.2516e-020 	0.00277899 	1.99971e-019 	-0.403242 	485.179 	0
-5.26219e-020 	0.00278759 	1.99971e-019 	1.99636 	488.281 	0
-5.25672e-020 	0.00278837 	1.99971e-019 	3.28008 	495.143 	0
-5.25143e-020 	0.00278873 	1.99971e-019 	4.39541 	502.196 	0
-5.2268e-020 	0.00279736 	1.99971e-019 	3.36106 	506.015 	0
-5.24797e-020 	0.00280212 	1.99971e-019 	-1.02791 	510.663 	0
-5.32308e-020 	0.00280615 	1.99971e-019 	-3.46326 	518.432 	0
-5.35748e-020 	0.00281288 	1.99971e-019 	1.9123 	521.303 	0
-5.3305e-020 	0.00281481 	1.99971e-019 	2.91079 	528.663 	0
-5.35168e-020 	0.00281594 	1.99971e-019 	1.6671 	532.838 	0
-5.29183e-020 	0.00282325 	1.99971e-019 	-0.789969 	541.034 	0
-5.27065e-020 	0.00282909 	1.99971e-019 	0.158098 	548.773 	0
-5.27788e-020 	0.00283153 	1.99971e-019 	-1.0475 	552.923 	0
-5.28337e-020 	0.00283574 	1.99971e-019 	-0.182626 	560.911 	0
-5.27278e-020 	0.00283947 	1.99971e-019 	2.00047 	564.496 	0
-5.29396e-020 	0.00284177 	1.99971e-019 	2.91391 	572.695 	0
-5.32078e-020 	0.0028473 	1.99971e-019 	-2.03156 	577.783 	0
-5.35784e-020 	0.00285426 	1.99971e-019 	-3.3362 	582.337 	0
-5.36265e-020 	0.00285497 	1.99971e-019 	-2.56755 	590.897 	0
-5.36807e-020 	0.00285619 	1.99971e-019 	-0.0125077 	594.796 	0
-5.32793e-020 	0.00286248 	1.99971e-019 	1.20825 	603.281 	0
-5.31513e-020 	0.0028657 	1.99971e-019 	2.44507 	611.7 	0
-5.2996e-020 	0.00286952 	1.99971e-019 	-1.36786 	616.165 	0
-5.30454e-020 	0.00287533 	1.99971e-019 	1.26203 	624.972 	0
-5.32226e-020 	0.00287656 	1.99971e-019 	3.56454 	629.005 	0
-5.31167e-020 	0.0028774 	1.99971e-019 	5.06612 	638.274 	0
-5.26813e-020 	0.00288383 	1.99971e-019 	4.21143 	643.475 	0
-5.28931e-020 	0.00288722 	1.99971e-019 	-0.760209 	649.539 	0
-5.33804e-020 	0.00289058 	1.99971e-019 	-3.51772 	659.399 	0
-5.3416e-020 	0.00289598 	1.99971e-019 	2.51384 	663.209 	0
-5.33593e-020 	0.00289724 	1.99971e-019 	3.46024 	672.851 	0
-5.33593e-020 	0.00289802 	1.99971e-019 	2.08341 	678.275 	0
-5.31311e-020 	0.00290378 	1.99971e-019 	3.05562 	688.219 	0
-5.37664e-020 	0.00290827 	1.99971e-019 	0.25442 	699.343 	0
-5.35302e-020 	0.00291019 	1.99971e-019 	-1.1513 	704.828 	0
-5.37866e-020 	0.00291346 	1.99971e-019 	-0.260845 	715.425 	0
-5.35748e-020 	0.00291639 	1.99971e-019 	2.15542 	720.14 	0
-5.39984e-020 	0.00291816 	1.99971e-019 	2.98929 	731.007 	0
-5.39984e-020 	0.00292249 	1.99971e-019 	-2.61204 	737.582 	0
-5.36807e-020 	0.0029281 	1.99971e-019 	-1.74736 	749.025 	0
-5.37337e-020 	0.00292857 	1.99971e-019 	-7.47583 	755.646 	0
-5.37982e-020 	0.00292934 	1.99971e-019 	-2.49834 	766.881 	0
-5.37866e-020 	0.00293455 	1.99971e-019 	3.82992 	771.357 	0
-5.35748e-020 	0.00293792 	1.99971e-019 	0.641211 	784.391 	0
-5.31513e-020 	0.00294038 	1.99971e-019 	-4.96798 	791.649 	0
-5.31513e-020 	0.00294413 	1.99971e-019 	1.37238 	796.711 	0
-5.29396e-020 	0.00294614 	1.99971e-019 	6.18814 	807.72 	0
-5.30454e-020 	0.00294737 	1.99971e-019 	3.00834 	821.601 	0
-5.29396e-020 	0.00295171 	1.99971e-019 	-2.82556 	829.74 	0
-5.31513e-020 	0.00295648 	1.99971e-019 	-4.51081 	836.937 	0
-5.32572e-020 	0.00295719 	1.99971e-019 	-3.73912 	850.113 	0
-5.32091e-020 	0.00295827 	1.99971e-019 	-2.9667 	863.801 	0
-5.3368e-020 	0.00296264 	1.99971e-019 	-0.470038 	869.937 	0
-5.3368e-020 	0.0029654 	1.99971e-019 	0.322151 	884.207 	0
-5.37014e-020 	0.002968 	1.99971e-019 	-5.33507 	893.068 	0
-5.39984e-020 	0.00297217 	1.99971e-019 	-0.496398 	907.054 	0
-5.39734e-020 	0.00297356 	1.99971e-019 	1.81536 	914.168 	0
-5.40793e-020 	0.00297455 	1.99971e-019 	0.0485976 	923.023 	0
-5.41659e-020 	0.00297924 	1.99971e-019 	0.59753 	939.418 	0
-5.39012e-020 	0.0029846 	1.99971e-019 	-5.08079 	949.542 	0
-5.39454e-020 	0.00298513 	1.99971e-019 	-4.8502 	966.949 	0
-5.39454e-020 	0.00298558 	1.99971e-019 	-3.02654 	976.001 	0
-5.42101e-020 	0.00299107 	1.99971e-019 	0.211433 	994.257 	0
-5.45562e-020 	0.00299636 	1.99971e-019 	0.13579 	1013.47 	0
-5.45297e-020 	0.00299676 	1.99971e-019 	1.80578 	1022.57 	0
-5.42483e-020 	0.00300259 	1.99971e-019 	-2.32634 	1054.34 	0
-5.40365e-020 	0.003007 	1.99971e-019 	-2.34505 	1077.52 	0
-5.42552e-020 	0.00300912 	1.99971e-019 	-2.97477 	1089.16 	0
-5.36592e-020 	0.00301185 	1.99971e-019 	-2.51094 	1117.41 	0
-5.34475e-020 	0.00301655 	1.99971e-019 	-2.06211 	1129.81 	0
-5.32357e-020 	0.00302036 	1.99971e-019 	-2.83974 	1156.52 	0
-5.30001e-020 	0.00302411 	1.99971e-019 	-2.34069 	1172.69 	0
-5.29762e-020 	0.00302764 	1.99971e-019 	-3.01709 	1195.18 	0
-5.25527e-020 	0.0030309 	1.99971e-019 	-4.42869 	1208.81 	0
-5.2288e-020 	0.00303714 	1.99971e-019 	-3.82644 	1240.25 	0
-5.23151e-020 	0.00303837 	1.99971e-019 	-2.30784 	1246.46 	0
-5.23572e-020 	0.00303881 	1.99971e-019 	0.284671 	1263.34 	0
-5.24631e-020 	0.00304009 	1.99971e-019 	-1.94291 	1275.82 	0
-5.2516e-020 	0.00304859 	1.99971e-019 	-10.324 	1310.08 	0
-5.30082e-020 	0.00305358 	1.99971e-019 	-6.29458 	1346.46 	0
-5.2911e-020 	0.00305788 	1.99971e-019 	8.39029 	1367.79 	0
-5.29396e-020 	0.00306216 	1.99971e-019 	0.922225 	1400.34 	0
-5.29396e-020 	0.00306755 	1.99971e-019 	-20.6563 	1415.71 	0
-5.27849e-020 	0.00307195 	1.99971e-019 	-2.96813 	1437.26 	0
-5.37866e-020 	0.0030783 	1.99971e-019 	-3.32187 	1475.5 	0
-5.30454e-020 	0.00308755 	1.99971e-019 	-14.6022 	1492.92 	0
-5.30454e-020 	0.00308954 	1.99971e-019 	-46.74 	1532.86 	0
-5.30454e-020 	0.00309082 	1.99971e-019 	-14.1505 	1550.8 	0
-5.29396e-020 	0.0031015 	1.99971e-019 	7.88159 	1590.07 	0
-5.29396e-020 	0.0031101 	1.99971e-019 	0.23106 	1624.78 	0
-5.33631e-020 	0.00311354 	1.99971e-019 	14.122 	1644.36 	0
-5.38577e-020 	0.00311859 	1.99971e-019 	11.3693 	1678.95 	0
-5.54807e-020 	0.00312652 	1.99971e-019 	-43.1683 	1691.1 	0
-5.51282e-020 	0.00313245 	1.99971e-019 	4.05096 	1712.23 	0
-5.49951e-020 	0.00314016 	1.99971e-019 	1.31508 	1743.95 	0
-5.5621e-020 	0.00315155 	1.99971e-019 	-21.8522 	1758.55 	0
-5.59042e-020 	0.00315462 	1.99971e-019 	-29.9169 	1790.04 	0
-5.59042e-020 	0.00315668 	1.99971e-019 	-14.5886 	1807.36 	0
-5.50571e-020 	0.00316955 	1.99971e-019 	-22.0793 	1839.53 	0
-5.64336e-020 	0.00318075 	1.99971e-019 	44.4887 	1860.55 	0
-5.64336e-020 	0.00318165 	1.99971e-019 	79.7469 	1896.31 	0
-5.68357e-020 	0.00319845 	1.99971e-019 	81.3881 	1908.64 	0
-5.84453e-020 	0.00321793 	1.99971e-019 	-4.50712 	1955.17 	0
-5.75982e-020 	0.00322905 	1.99971e-019 	9.59684 	1981.42 	0
-5.67512e-020 	0.00323704 	1.99971e-019 	-68.2457 	2005.59 	0
-5.72464e-020 	0.00324926 	1.99971e-019 	0.333625 	2025.76 	0
-5.67077e-020 	0.00325701 	1.99971e-019 	33.1201 	2036.88 	0
-5.65382e-020 	0.00326282 	1.99971e-019 	9.7756 	2049.81 	0
-5.75982e-020 	0.00327708 	1.99971e-019 	-32.1461 	2075.79 	0
-5.7413e-020 	0.00329315 	1.99971e-019 	30.8238 	2088.9 	0
-5.736e-020 	0.00329351 	1.99971e-019 	103.824 	2097.13 	0
-5.736e-020 	0.00329535 	1.99971e-019 	19.7801 	2119.75 	0
-5.80218e-020 	0.00331581 	1.99971e-019 	-28.0189 	2123.47 	0
-5.75982e-020 	0.00331817 	1.99971e-019 	9.76917 	2129.99 	0
-5.71747e-020 	0.00332285 	1.99971e-019 	-24.8332 	2149.8 	0
-5.84453e-020 	0.00334525 	1.99971e-019 	13.6036 	2158.23 	0
-5.92923e-020 	0.0033595 	1.99971e-019 	-12.7937 	2168.82 	0
-5.75982e-020 	0.00337086 	1.99971e-019 	-56.9043 	2188.05 	0
-5.84413e-020 	0.00338887 	1.99971e-019 	16.4899 	2207.61 	0
-5.89322e-020 	0.00339724 	1.99971e-019 	50.3572 	2216.79 	0
-5.97648e-020 	0.00340253 	1.99971e-019 	15.344 	2223.12 	0
-6.10354e-020 	0.0034245 	1.99971e-019 	17.1523 	2244.13 	0
-6.01393e-020 	0.00344625 	1.99971e-019 	17.6999 	2260.54 	0
-6.09864e-020 	0.0034527 	1.99971e-019 	17.5281 	2265.49 	0
-6.00398e-020 	0.00346313 	1.99971e-019 	18.1177 	2273.93 	0
-6.00044e-020 	0.00348099 	1.99971e-019 	15.6906 	2288.02 	0
-6.02499e-020 	0.00348961 	1.99971e-019 	14.7855 	2293.57 	0
-5.94029e-020 	0.00351079 	1.99971e-019 	15.0039 	2309.21 	0
-5.97e-020 	0.00352632 	1.99971e-019 	22.4903 	2318.72 	0
-5.84453e-020 	0.00354165 	1.99971e-019 	46.9021 	2324.57 	0
-5.92923e-020 	0.00355262 	1.99971e-019 	20.8289 	2333.53 	0
-5.60582e-020 	0.00357199 	1.99971e-019 	15.5445 	2344.16 	0
-5.41354e-020 	0.00358969 	1.99971e-019 	10.2143 	2356.66 	0
-5.32883e-020 	0.00360407 	1.99971e-019 	10.9285 	2365.43 	0
-5.37118e-020 	0.00362994 	1.99971e-019 	12.8142 	2378.28 	0
-5.42101e-020 	0.00364023 	1.99971e-019 	13.079 	2382.7 	0
-5.49972e-020 	0.0036493 	1.99971e-019 	11.6443 	2386.99 	0
-5.58442e-020 	0.00367854 	1.99971e-019 	13.0098 	2397.62 	0
-5.65385e-020 	0.00371543 	1.99971e-019 	13.8027 	2416.89 	0
-5.6962e-020 	0.00371707 	1.99971e-019 	13.923 	2417.75 	0
-5.65385e-020 	0.00371948 	1.99971e-019 	14.0872 	2418.99 	0
-5.85449e-020 	0.00375537 	1.99971e-019 	17.0893 	2436.14 	0
-5.64793e-020 	0.00377958 	1.99971e-019 	22.0334 	2440.55 	0
-5.73263e-020 	0.00379456 	1.99971e-019 	24.6956 	2442.62 	0
-5.81734e-020 	0.00382285 	1.99971e-019 	21.566 	2453.59 	0
-5.92923e-020 	0.00383554 	1.99971e-019 	18.2389 	2458.26 	0
-5.88688e-020 	0.00384198 	1.99971e-019 	18.09 	2461.94 	0
-5.76838e-020 	0.00387751 	1.99971e-019 	20.4528 	2481.3 	0
-5.59042e-020 	0.00391392 	1.99971e-019 	17.6307 	2493.36 	0
-5.40665e-020 	0.00392118 	1.99971e-019 	17.8721 	2495.71 	0
-5.40665e-020 	0.00393146 	1.99971e-019 	17.8829 	2496.45 	0
-5.58864e-020 	0.00396591 	1.99971e-019 	14.4433 	2497.59 	0
-5.66433e-020 	0.00399101 	1.99971e-019 	13.4572 	2502.07 	0
-5.59042e-020 	0.00401116 	1.99971e-019 	14.1923 	2504.82 	0
-5.33631e-020 	0.00403943 	1.99971e-019 	15.8744 	2517.8 	0
-5.2516e-020 	0.00405743 	1.99971e-019 	16.0316 	2525.83 	0
-4.99749e-020 	0.00407155 	1.99971e-019 	16.0812 	2530.82 	0
-4.91279e-020 	0.00410514 	1.99971e-019 	18.2223 	2541.64 	0
-4.74338e-020 	0.00414503 	1.99971e-019 	18.9724 	2543.84 	0
-4.74338e-020 	0.00415449 	1.99971e-019 	18.5801 	2544.09 	0
-4.76839e-020 	0.0041618 	1.99971e-019 	17.9349 	2544.77 	0
-4.40457e-020 	0.00420483 	1.99971e-019 	15.5481 	2547.33 	0
-4.56965e-020 	0.00424995 	1.99971e-019 	9.42354 	2561.66 	0
-4.48927e-020 	0.00425644 	1.99971e-019 	9.42088 	2563.84 	0
-4.48494e-020 	0.0042654 	1.99971e-019 	10.3004 	2566.73 	0
-4.48178e-020 	0.00431001 	1.99971e-019 	13.5417 	2581.22 	0
-4.40457e-020 	0.00434086 	1.99971e-019 	12.9829 	2584.79 	0
-4.24622e-020 	0.00436392 	1.99971e-019 	11.4837 	2587.11 	0
-4.41563e-020 	0.00439882 	1.99971e-019 	11.4636 	2587.88 	0
-4.33011e-020 	0.00441993 	1.99971e-019 	10.1429 	2588.11 	0
-4.26299e-020 	0.00443467 	1.99971e-019 	10.3166 	2590.58 	0
-4.17829e-020 	0.004477 	1.99971e-019 	9.40549 	2597.22 	0
-4.20467e-020 	0.00452949 	1.99971e-019 	9.80502 	2611.46 	0
-4.24703e-020 	0.00453468 	1.99971e-019 	10.1331 	2612.72 	0
-4.15046e-020 	0.00454323 	1.99971e-019 	10.282 	2614.07 	0
-4.06576e-020 	0.00459466 	1.99971e-019 	11.2019 	2621.38 	0
-3.89635e-020 	0.00462431 	1.99971e-019 	8.57531 	2625.14 	0
-3.72694e-020 	0.00465686 	1.99971e-019 	9.05055 	2628.68 	0
-3.61386e-020 	0.00471098 	1.99971e-019 	9.5849 	2633.29 	0
-3.64224e-020 	0.0047204 	1.99971e-019 	9.60605 	2634.02 	0
-3.64224e-020 	0.00472651 	1.99971e-019 	9.44369 	2634.27 	0
-3.5612e-020 	0.00478595 	1.99971e-019 	10.7082 	2636.07 	0
-3.46395e-020 	0.00483473 	1.99971e-019 	10.1933 	2641.59 	0
-3.46395e-020 	0.00485284 	1.99971e-019 	10.8034 	2643.61 	0
-3.63336e-020 	0.00487836 	1.99971e-019 	12.0216 	2648.88 	0
-3.38813e-020 	0.00491845 	1.99971e-019 	12.6593 	2657.01 	0
-3.38813e-020 	0.00494948 	1.99971e-019 	13.1546 	2661.48 	0
-3.5527e-020 	0.00498709 	1.99971e-019 	13.9661 	2666.18 	0
-3.72694e-020 	0.00504715 	1.99971e-019 	13.3263 	2670.41 	0
-3.71967e-020 	0.0050579 	1.99971e-019 	12.9786 	2671.07 	0
-3.65448e-020 	0.00506454 	1.99971e-019 	12.7118 	2671.25 	0
-3.48507e-020 	0.0051293 	1.99971e-019 	12.4796 	2672.12 	0
-3.21873e-020 	0.00518409 	1.99971e-019 	12.6469 	2677.9 	0
-2.97315e-020 	0.00520192 	1.99971e-019 	13.4104 	2679.99 	0
-3.14256e-020 	0.00522761 	1.99971e-019 	14.1802 	2684.18 	0
-3.15911e-020 	0.00527549 	1.99971e-019 	14.9369 	2691.57 	0
-2.68486e-020 	0.00530987 	1.99971e-019 	14.8329 	2695.5 	0
-2.85427e-020 	0.00535006 	1.99971e-019 	16.9873 	2698.55 	0
-2.26135e-020 	0.00540823 	1.99971e-019 	19.0125 	2703.3 	0
-2.29942e-020 	0.00542646 	1.99971e-019 	19.2423 	2704.42 	0
-2.36675e-020 	0.00544013 	1.99971e-019 	19.0872 	2705.22 	0
-2.28204e-020 	0.00550317 	1.99971e-019 	19.7013 	2708.16 	0
-2.68815e-020 	0.0055733 	1.99971e-019 	19.6196 	2712.54 	0
-2.6458e-020 	0.00557849 	1.99971e-019 	19.5383 	2712.81 	0
-2.56109e-020 	0.00558663 	1.99971e-019 	19.6322 	2713.32 	0
-2.29348e-020 	0.00566061 	1.99971e-019 	18.597 	2716.99 	0
-2.4825e-020 	0.00570937 	1.99971e-019 	19.2586 	2719.99 	0
-2.99072e-020 	0.00574368 	1.99971e-019 	18.9465 	2721.68 	0
-2.65191e-020 	0.0058034 	1.99971e-019 	17.6054 	2724.94 	0
-2.62239e-020 	0.0058296 	1.99971e-019 	15.5419 	2726.24 	0
-2.65356e-020 	0.00584307 	1.99971e-019 	14.8084 	2726.84 	0
-2.06064e-020 	0.005917 	1.99971e-019 	11.3184 	2729.68 	0
-1.65613e-020 	0.00597959 	1.99971e-019 	11.6871 	2733.16 	0
-1.99495e-020 	0.00600655 	1.99971e-019 	12.1071 	2734.25 	0
-1.82554e-020 	0.00604936 	1.99971e-019 	12.6907 	2736.1 	0
-1.69407e-020 	0.00609805 	1.99971e-019 	12.6905 	2737.66 	0
-2.20229e-020 	0.00612925 	1.99971e-019 	11.6632 	2739.16 	0
-2.24076e-020 	0.00618859 	1.99971e-019 	10.9238 	2741.44 	0
-2.49875e-020 	0.00627551 	1.99971e-019 	11.9558 	2745.26 	0
-2.44732e-020 	0.0062806 	1.99971e-019 	11.8847 	2745.4 	0
-2.42439e-020 	0.00628412 	1.99971e-019 	11.7198 	2745.59 	0
-2.17028e-020 	0.00637446 	1.99971e-019 	8.44305 	2748.98 	0
-1.87134e-020 	0.00644402 	1.99971e-019 	6.45589 	2749.74 	0
-1.52466e-020 	0.00646886 	1.99971e-019 	5.84608 	2750.38 	0
-1.18585e-020 	0.00650382 	1.99971e-019 	6.16598 	2751.83 	0
-1.44468e-020 	0.00656419 	1.99971e-019 	5.44466 	2754.26 	0
-8.90892e-021 	0.00660535 	1.99971e-019 	3.65776 	2755.04 	0
-5.52079e-021 	0.00666277 	1.99971e-019 	2.04971 	2756.52 	0
-2.97969e-021 	0.00674917 	1.99971e-019 	2.65987 	2759.21 	0
-5.34007e-021 	0.00676258 	1.99971e-019 	2.7715 	2759.67 	0
-4.23516e-021 	0.00677178 	1.99971e-019 	2.54214 	2760 	0
-7.84315e-021 	0.00686365 	1.99971e-019 	2.01182 	2762.89 	0
-5.71102e-021 	0.00694537 	1.99971e-019 	3.18142 	2765.47 	0
-6.77626e-021 	0.00696588 	1.99971e-019 	3.41182 	2766.07 	0
-8.47033e-021 	0.00699931 	1.99971e-019 	3.64257 	2767.2 	0
-1.01644e-020 	0.00706998 	1.99971e-019 	2.76733 	2769.83 	0
-9.7582e-021 	0.0071193 	1.99971e-019 	1.91463 	2771.65 	0
-3.38813e-021 	0.00717818 	1.99971e-019 	1.9063 	2774.01 	0
-8.06413e-021 	0.00724663 	1.99971e-019 	5.28215 	2777.55 	0
-1.35525e-020 	0.00729307 	1.99971e-019 	6.65133 	2780.84 	0
-1.69407e-020 	0.00732838 	1.99971e-019 	6.63031 	2781.73 	0
-1.35525e-020 	0.00740118 	1.99971e-019 	4.89859 	2785.76 	0
-1.48231e-020 	0.00750354 	1.99971e-019 	4.70353 	2790.67 	0
-1.45054e-020 	0.00750485 	1.99971e-019 	4.65302 	2790.71 	0
-1.46113e-020 	0.00750616 	1.99971e-019 	4.6865 	2790.73 	0
-2.03288e-020 	0.00761408 	1.99971e-019 	1.8945 	2792.74 	0
-2.38409e-020 	0.00770264 	1.99971e-019 	-0.100954 	2794.86 	0
-2.20229e-020 	0.0077274 	1.99971e-019 	-0.884835 	2795.4 	0
-1.52466e-020 	0.00776217 	1.99971e-019 	-0.799583 	2796.32 	0
-1.54025e-020 	0.00784226 	1.99971e-019 	-1.51462 	2798.31 	0
-1.20251e-020 	0.00789847 	1.99971e-019 	0.114188 	2800.39 	0
-1.88014e-020 	0.00795943 	1.99971e-019 	1.05681 	2802.17 	0
-1.01644e-020 	0.00805917 	1.99971e-019 	1.53717 	2805.52 	0
-8.47033e-021 	0.0080778 	1.99971e-019 	1.41067 	2806.09 	0
-9.31736e-021 	0.00808841 	1.99971e-019 	1.25923 	2806.74 	0
-1.35525e-020 	0.00819766 	1.99971e-019 	1.66182 	2810.77 	0
-1.35525e-020 	0.00828765 	1.99971e-019 	2.47901 	2810.95 	0
-1.35525e-020 	0.0083206 	1.99971e-019 	2.69157 	2811.55 	0
-1.3972e-020 	0.00836948 	1.99971e-019 	3.75229 	2811.59 	0
-1.69407e-020 	0.00844587 	1.99971e-019 	3.98909 	2809.2 	0
-2.03288e-020 	0.00850044 	1.99971e-019 	4.77046 	2811.44 	0
-3.11243e-020 	0.0085718 	1.99971e-019 	5.0924 	2812.83 	0
-2.5411e-020 	0.00867336 	1.99971e-019 	5.75443 	2815.85 	0
-2.40831e-020 	0.00869875 	1.99971e-019 	5.535 	2816.64 	0
-2.3881e-020 	0.00871626 	1.99971e-019 	5.54154 	2817.09 	0
-3.23514e-020 	0.00882731 	1.99971e-019 	5.20353 	2819.5 	0
-2.92701e-020 	0.0089358 	1.99971e-019 	5.76452 	2821.94 	0
-3.04932e-020 	0.00895736 	1.99971e-019 	5.87758 	2822.34 	0
-3.72694e-020 	0.00898846 	1.99971e-019 	6.18404 	2823 	0
-4.00383e-020 	0.00908923 	1.99971e-019 	6.24763 	2825.43 	0
-4.22963e-020 	0.00915905 	1.99971e-019 	6.69278 	2827.41 	0
-3.89081e-020 	0.00922209 	1.99971e-019 	7.08917 	2828.88 	0
-4.73785e-020 	0.00931334 	1.99971e-019 	7.46644 	2830.7 	0
-4.7806e-020 	0.00935617 	1.99971e-019 	7.3374 	2832.27 	0
-4.7042e-020 	0.00938538 	1.99971e-019 	7.04167 	2832.44 	0
-4.7042e-020 	0.00948914 	1.99971e-019 	7.04584 	2834.53 	0
-5.56251e-020 	0.00961783 	1.99971e-019 	6.24662 	2833.77 	0
-5.56251e-020 	0.0096264 	1.99971e-019 	6.40227 	2833.86 	0
-5.59042e-020 	0.00963893 	1.99971e-019 	6.43607 	2834.04 	0
-5.0955e-020 	0.00977075 	1.99971e-019 	7.57124 	2835.44 	0
-5.42101e-020 	0.00984583 	1.99971e-019 	5.23652 	2836.8 	0
-4.74338e-020 	0.0099051 	1.99971e-019 	5.6783 	2837.04 	0
-4.88984e-020 	0.00999915 	1.99971e-019 	7.8881 	2838.46 	0
-4.75149e-020 	0.0100469 	1.99971e-019 	8.82524 	2839.11 	0
-5.0822e-020 	0.0100789 	1.99971e-019 	9.55146 	2838.96 	0
-5.28283e-020 	0.010189 	1.99971e-019 	12.4411 	2840.89 	0
-4.55192e-020 	0.0103203 	1.99971e-019 	14.6315 	2842.9 	0
-4.57398e-020 	0.0103343 	1.99971e-019 	15.2494 	2842.98 	0
-4.72133e-020 	0.010355 	1.99971e-019 	15.5488 	2843.68 	0
-3.80486e-020 	0.0104755 	1.99971e-019 	18.3208 	2847.53 	0
-4.74338e-020 	0.0105668 	1.99971e-019 	22.7398 	2850.65 	0
-5.00614e-020 	0.0106236 	1.99971e-019 	28.7105 	2850.21 	0
-4.40457e-020 	0.0107037 	1.99971e-019 	32.6964 	2851.33 	0
-3.72694e-020 	0.0107659 	1.99971e-019 	33.1243 	2850.61 	0
-4.06576e-020 	0.0107982 	1.99971e-019 	33.0407 	2851.39 	0
-3.97731e-020 	0.0109041 	1.99971e-019 	43.3716 	2844.27 	0
-4.06576e-020 	0.0110462 	1.99971e-019 	48.6755 	2845.29 	0
-4.15445e-020 	0.0110645 	1.99971e-019 	52.2931 	2844.34 	0
-3.98505e-020 	0.0110898 	1.99971e-019 	54.6954 	2843.76 	0
-3.95865e-020 	0.0112219 	1.99971e-019 	63.0196 	2833.8 	0
-4.0259e-020 	0.0113207 	1.99971e-019 	67.1187 	2832.29 	0
-3.38813e-020 	0.0113758 	1.99971e-019 	81.3279 	2824.54 	0
-3.38813e-020 	0.0114521 	1.99971e-019 	102.371 	2816.63 	0
-3.72694e-020 	0.0115306 	1.99971e-019 	110.516 	2803.7 	0
-4.06576e-020 	0.0116138 	1.99971e-019 	112.612 	2801.79 	0
-3.38813e-020 	0.0116937 	1.99971e-019 	114.401 	2792.13 	0
-4.06576e-020 	0.0117387 	1.99971e-019 	127.82 	2790.25 	0
-3.76542e-020 	0.0118508 	1.99971e-019 	98.7029 	2766.64 	0
-4.14085e-020 	0.0119946 	1.99971e-019 	105.519 	2748.15 	0
-4.10811e-020 	0.0119993 	1.99971e-019 	105.38 	2747.18 	0
-4.19281e-020 	0.0120047 	1.99971e-019 	106.896 	2745.97 	0
-5.42101e-020 	0.0121618 	1.99971e-019 	98.7369 	2686 	0
-5.75982e-020 	0.0122967 	1.99971e-019 	80.8544 	2662.01 	0
-5.66846e-020 	0.0123343 	1.99971e-019 	70.0915 	2652.25 	0
-5.75982e-020 	0.01238 	1.99971e-019 	68.8514 	2653.07 	0
-5.42101e-020 	0.0125128 	1.99971e-019 	48.8434 	2653.94 	0
-5.8323e-020 	0.0126136 	1.99971e-019 	42.0384 	2629.56 	0
-5.15467e-020 	0.0126879 	1.99971e-019 	23.5476 	2615.89 	0
-5.15467e-020 	0.0127855 	1.99971e-019 	27.6363 	2581.85 	0
-4.74338e-020 	0.0128645 	1.99971e-019 	35.253 	2563.75 	0
-3.72694e-020 	0.0129256 	1.99971e-019 	36.953 	2548.2 	0
-2.03288e-020 	0.0130406 	1.99971e-019 	28.0719 	2540.42 	0
-1.35525e-020 	0.0131649 	1.99971e-019 	14.6083 	2506.17 	0
-1.01644e-020 	0.0132032 	1.99971e-019 	16.6396 	2506.78 	0
-7.48566e-021 	0.0132348 	1.99971e-019 	17.0638 	2499.42 	0
0 	0.0133598 	1.99971e-019 	-6.90189 	2508.93 	0
1.69407e-021 	0.0134772 	1.99971e-019 	-20.9225 	2500.57 	0
0 	0.0135033 	1.99971e-019 	-23.0129 	2504.53 	0
-1.69407e-021 	0.0135282 	1.99971e-019 	-18.982 	2505.67 	0
1.35525e-020 	0.013658 	1.99971e-019 	-25.7758 	2539.41 	0
9.4388e-021 	0.0137971 	1.99971e-019 	-29.2871 	2521.81 	0
9.4388e-021 	0.013805 	1.99971e-019 	-29.6238 	2521.19 	0
8.22698e-021 	0.014 	1.99971e-019 	-31.0078 	2514.48 	0