/*--------------------------------*- C++ -*----------------------------------*\
| =========                 |                                                 |
| \\      /  F ield         | OpenFOAM: The Open Source CFD Toolbox           |
|  \\    /   O peration     | Version:  dev                                   |
|   \\  /    A nd           | Web:      www.OpenFOAM.org                      |
|    \\/     M anipulation  |                                                 |
|*---------------------------------------------------------------------------*|
|* OpenFOAM for Windows 18.02 (v1)                                           *|
|* Built by CFD Support, www.cfdsupport.com (based on Symscape).             *|
\*---------------------------------------------------------------------------*/
FoamFile
{
    version     2.0;
    format      ascii;
    class       volScalarField;
    location    "2e-005";
    object      alphat;
}
// * * * * * * * * * * * * * * * * * * * * * * * * * * * * * * * * * * * * * //

dimensions      [1 -1 -1 0 0 0 0];

internalField   nonuniform List<scalar> 
23640
(
6.47909e-006
1.04861e-005
1.14356e-008
0.0149057
1.9391e-005
5.1591e-005
1.63027e-005
3.12708e-005
6.89331e-005
1.47846e-005
0.00512741
3.72166e-005
1.7927e-005
1.41003e-005
3.59398e-005
4.00239e-005
2.45576e-006
0.00227514
0.00481517
8.37777e-005
0.00347113
2.24761e-009
0.00366647
0.000597784
2.96234e-005
2.45143e-005
0.00077265
0.000138985
1.25436e-006
1.31023e-005
1.16457e-005
0.156377
0.00326147
5.25896e-005
5.16202e-005
2.56123e-005
2.84869e-006
2.89597e-006
8.82255e-008
0.000638482
3.64777e-005
7.56787e-005
2.03172e-005
1.15836e-007
0.0298856
0.000613022
5.92916e-006
1.85264e-005
1.50864e-005
3.05081e-005
0.626184
0.00387842
1.9149e-005
2.72943e-006
0.0157265
1.7353e-006
7.39226e-005
1.65557e-005
6.97997e-006
0.013606
1.06806e-005
0.000861959
0.00560077
0.00426459
8.54976e-006
0.00416008
3.59232e-005
2.88435e-005
0.000396441
2.36954e-005
0.000584626
5.06311e-005
0.00234131
2.42555e-006
4.98543e-005
0.0432069
5.26448e-008
1.69276e-005
0.00482268
0.00581685
0.000709757
0.00011883
6.96789e-006
7.01521e-006
8.45705e-006
5.49207e-006
0.00374967
4.60979e-005
0.00063231
4.00632e-005
9.77579e-006
2.26526e-005
3.98885e-005
0.00314878
0.00447696
3.5653e-005
0.0043945
4.34095e-006
5.25625e-005
2.97222e-005
4.7755e-005
2.66011e-006
0.000313735
1.48448e-006
3.68607e-005
2.45619e-006
0.0017328
1.97255e-006
4.0889e-005
5.58424e-005
7.10455e-006
0.00248755
5.99384e-005
3.59747e-005
3.71239e-005
4.80404e-007
3.26355e-005
5.79665e-006
5.77589e-006
1.69307e-005
0.000137966
0.129972
4.62608e-006
0.150182
0.000284658
0.000367441
0.833005
7.88601e-005
5.23244e-005
3.34406e-005
0.000223187
7.66774e-005
1.89625e-005
0.000441343
1.4755e-006
3.59841e-005
0.00383568
2.92995e-005
0.00516236
0.0044505
5.50897e-005
7.44311e-005
0.00214416
0.0052511
0.00114557
4.01739e-005
0.00459947
0.00126147
1.01994e-005
0.000380213
3.04144e-005
6.73251e-005
7.36437e-006
0.00979813
0.000140238
9.55553e-007
1.65338e-005
6.00422e-005
4.21883e-005
0.000763393
3.8521e-005
1.21122e-005
2.54713e-005
3.0754e-005
5.15707e-007
3.55787e-007
0.000965471
0.000259399
0.00225125
7.391e-005
1.8404e-005
3.67313e-005
4.97435e-005
3.76506e-005
0.00380948
0.00313669
3.30988e-005
5.36849e-005
0.00583469
1.56456e-005
0.0299287
5.5104e-007
2.95985e-005
0.000113203
1.4763e-006
0.00205023
0.000297623
3.37802e-005
0.00903133
0.000131081
8.98119e-005
0.00436635
0.0975444
7.36984e-006
1.83883e-006
0.000347873
3.77223e-005
5.94463e-005
5.27832e-007
0.00031104
0.00509945
1.12332e-007
3.66596e-006
7.5653e-005
0.00438456
8.24823e-006
4.1656e-007
0.0034673
4.49967e-005
0.00135834
1.52594e-005
2.85508e-005
1.65819e-005
8.28774e-006
6.97585e-005
4.50355e-005
1.98727e-005
8.28225e-005
4.00435e-005
1.35056e-007
1.78857e-005
0.00471461
0.00507706
3.72528e-005
0.000743774
5.66093e-005
2.82352e-005
0.135052
1.24228e-007
9.74864e-006
7.21008e-006
1.62797e-006
6.77418e-005
2.83902e-005
5.82516e-005
0.000124505
0.000650039
4.44967e-005
1.01358e-005
0.000412625
5.53506e-005
1.10537e-005
3.67876e-005
7.62075e-005
0.0137098
2.42097e-006
2.11403e-005
2.92521e-006
0.0077945
0.000465702
0.015915
2.4512e-005
6.10541e-006
0.0035999
7.24174e-006
0.000668613
1.1966e-008
1.85833e-006
0.00370396
0.00262686
0.0213799
7.08028e-006
5.98153e-005
4.22225e-005
1.02994e-006
2.07983e-005
0.00050681
5.03308e-005
7.29341e-006
0.00363239
2.23073e-005
5.14268e-007
0.00011368
0.0105806
6.75701e-005
5.4035e-005
1.50513e-006
0.126244
0.00475496
3.66223e-005
0.000324706
6.11268e-007
0.00186483
0.00548909
6.49819e-005
0.000797252
4.1793e-005
4.53464e-005
1.51812e-005
0.00547592
4.79177e-005
1.81124e-006
4.34958e-005
3.76412e-005
0.00513001
3.96305e-005
3.31785e-005
2.67563e-006
2.93269e-005
3.78312e-006
0.000271916
0.00431093
0.15062
3.14122e-005
0.00376236
6.13489e-007
9.37918e-005
0.000481479
0.0189773
0.00192655
1.49282e-006
7.99931e-005
0.00390901
0.00407425
0.004901
0.000473358
3.27087e-005
1.08902e-008
0.00454858
5.59681e-005
8.0997e-006
5.38784e-005
5.21789e-005
0.000132061
1.44764e-006
6.81413e-005
0.000367011
3.654e-005
1.12582e-005
0.405267
0.00170584
3.10104e-005
0.000116977
0.000198997
4.1494e-005
3.36695e-005
5.2477e-007
2.41462e-005
3.97679e-005
2.90305e-005
2.73353e-006
0.00153009
0.000137092
0.115601
0.00290098
0.00218132
0.000675248
3.50532e-005
5.33296e-005
7.15678e-005
0.00266188
5.85254e-005
1.85333e-006
5.40444e-006
5.17534e-005
4.99711e-007
2.31896e-005
4.94034e-006
0.00510589
0.00482402
0.000285716
0.00441459
0.00435983
3.21225e-006
4.31208e-005
3.0726e-007
3.19304e-007
2.14525e-005
0.00496702
1.67357e-005
9.6497e-005
0.000207455
1.48002e-006
0.00490856
0.00027755
1.80908e-006
0.0105622
6.43569e-008
3.70395e-005
0.0005353
0.00261143
0.000221732
4.34262e-005
0.00178806
5.64224e-005
1.20199e-006
3.00388e-005
2.91366e-007
0.000444026
4.7394e-007
0.00364508
5.08939e-005
1.82079e-007
2.00981e-005
4.89301e-005
0.00075477
0.112818
3.55153e-006
6.06693e-006
0.000532895
2.51584e-006
7.5324e-005
7.40775e-005
5.80256e-007
1.71476e-005
2.67824e-005
0.00882714
1.31528e-006
3.01119e-005
4.2099e-005
5.67346e-005
0.00769131
0.00320013
9.13529e-005
0.00483369
3.6519e-005
0.000739586
2.56569e-005
9.70886e-005
6.80758e-005
0.00388818
0.00357521
2.81596e-005
5.71371e-005
1.95269e-005
5.34146e-007
0.124938
6.57968e-006
0.0043429
3.05643e-005
1.40885e-006
0.0355121
0.00130358
0.00337995
0.00031908
0.00303414
0.000111969
2.53725e-005
0.000234626
0.00675779
0.000208017
0.00429051
1.23394e-005
2.18267e-005
0.00173685
4.3185e-005
0.000608104
2.10534e-005
0.00512569
2.17844e-005
142.172
3.63304e-005
0.00400052
5.10606e-005
0.00144383
1.33817e-006
1.40461e-005
9.2104e-005
0.00210872
1.78631e-005
9.42337e-005
6.43592e-005
5.65671e-005
11.7267
2.8997e-005
1.68806e-005
3.22724e-005
6.85447e-007
3.70362e-005
9.18298e-005
0.000211275
3.42233e-005
0.0229944
1.70445e-007
6.55108e-006
0.000814944
1.72713e-005
3.11925
7.87978e-005
0.0267643
4.41397e-005
8.35959e-007
0.000111809
2.21563e-005
3.80623e-005
3.54331e-005
0.00181953
2.13246e-007
1.27367e-005
4.55133e-006
0.000504775
0.0161453
1.46106e-005
0.000436238
3.64715e-005
2.6525e-005
3.81065e-005
0.00145344
3.87486e-005
4.83487e-006
3.19619e-005
0.00627074
5.40627e-007
3.81808e-005
4.00971e-005
7.12793e-006
4.72611e-005
1.2877e-006
1.77263e-006
1.69639e-005
0.000714638
7.58632e-006
1.45284e-005
7.42886e-006
0.00328453
4.94598e-005
5.50192e-005
1.67081e-006
7.87926e-005
0.0054045
6.01132e-005
0.00326875
231.937
2.91014e-005
1.46151e-005
6.10263e-005
0.00290391
9.0466e-005
0.0026925
6.89381e-006
2.97334e-005
0.000839383
0.000116633
7.12825e-005
3.42765e-006
2.61662e-005
1.91608e-005
5.477e-005
2.0378e-006
4.15009e-005
2.86345e-005
3.92404e-005
3.71931e-005
2.80122e-005
3.95676e-006
1.76804e-005
3.18858e-005
0.00103336
3.10443e-005
3.10268e-005
0.000313556
2.81627e-005
2.46078e-006
1.25948e-007
0.000224169
1.99286e-005
3.67738e-005
8.85217e-006
0.00402961
0.00445968
2.48693e-005
0.00192544
3.83233e-005
0.000314709
0.00450483
0.00359105
5.09535e-005
0.00435607
8.91352e-005
1.65959e-005
91.5206
1.56996e-005
3.59248e-005
1.82147e-006
4.88184e-006
0.00492452
7.22313e-006
5.78319e-006
3.37422e-005
5.15872e-006
0.0384765
7.30375e-005
4.75752e-006
9.07782e-005
0.00410888
0.000586804
3.21803e-005
3.22176e-005
2.32769e-005
0.00443798
0.00751398
3.28407e-005
3.61324e-005
7.6571e-005
7.12573e-006
0.00457355
7.78266e-005
0.000422285
3.33051e-005
3.46909e-005
0.00500714
0.00514418
0.0033925
9.17579e-005
1.40133e-005
2.48985e-006
6.3932e-005
6.56434e-006
5.0992e-005
0.00280278
1.76975e-005
3.0559e-005
3.7169e-005
2.30314e-005
5.20401e-005
5.955e-005
5.73483e-006
4.38529e-005
3.67271e-006
0.127615
0.00445757
3.39907e-005
3.59153e-005
0.00763572
1.79764e-005
0.00421839
2.13588e-005
0.00484669
3.41588e-005
1.30477e-005
3.93386e-007
4.36319e-005
8.33726e-007
1.56669e-005
1.71019e-007
0.0182612
3.53256e-005
2.21399e-005
3.21127e-006
2.55677e-005
7.72276e-005
4.12586e-006
0.00173929
1.78609e-005
5.72706e-007
7.27648e-005
0.00483912
0.000388998
1.05026e-006
3.58426e-005
3.86549e-005
0.10242
0.000882014
9.18963e-006
8.06271e-005
0.00481179
3.96494e-005
0.00181615
1.82875e-005
2.69927e-005
0.000109104
0.000485562
4.42261e-007
6.81651e-005
1.07246e-010
1.68522e-011
1.17395e-005
0.0781319
0.000895563
5.22061e-005
0.129492
4.5658e-005
2.84874e-005
4.71367e-005
0.00481607
3.27013e-006
2.72187e-005
2.98292e-005
4.98395e-006
0.00633733
0.0149701
8.09481e-005
3.74128e-005
1.75612e-007
5.50448e-005
9.80427e-007
0.0117841
3.99959e-005
0.000616685
0.124164
1.24276e-006
4.78385e-007
0.000989302
9.74919e-006
0.00309487
1.72976e-006
5.04631e-005
3.557e-005
0.000825823
5.70302e-005
0.0383033
0.00477952
5.77683e-005
0.000445841
2.08077e-006
4.7474e-005
0.000337238
3.20393e-005
0.00119016
5.16207e-005
0.00313749
0.000410979
4.24539e-005
3.17275e-007
4.88032e-010
2.44614e-005
5.43501e-005
1.71545e-005
0.00323086
1.14187e-005
5.59511e-005
0.000793784
2.34739e-005
2.8903e-007
0.000136669
2.67048e-009
7.00481e-007
2.30285e-006
3.96402e-005
0.0126805
5.05882e-005
4.05627e-006
0.00528424
0.00102624
1.00585e-006
5.30064e-005
2.98437e-006
3.63054e-005
0.00563802
6.47817e-005
2.90698e-005
5.51996e-005
0.00579725
5.90754e-005
1.32252e-006
0.00161782
4.97937e-006
0.000213037
1.23716e-006
2.28621e-005
0.00255321
3.03062e-007
3.15832e-005
1.89036e-005
2.70184e-005
3.24461
0.00051568
2.02329e-006
0.00366601
0.000502206
4.55345e-006
7.03004e-006
0.00129987
6.85547e-005
0.00933254
3.1713e-006
0.00551589
6.98017e-005
0.00310128
0.000137232
4.73002e-005
8.47786e-005
0.000531546
6.06245e-005
0.000549068
1.84184e-005
0.00241067
8.0147e-005
0.00379209
1.0675e-006
3.38003e-005
0.158204
3.38242e-008
1.16158e-006
4.51102e-006
0.0146332
0.000375977
1.08853e-006
0.000107645
6.09577e-005
1.68117e-007
2.86321e-005
0.00141439
3.4946e-005
6.62413e-007
0.000925529
1.87485e-005
0.0043849
3.58481e-006
0.000551057
7.27617e-005
7.19622e-005
3.48053e-005
6.65706e-006
2.29097e-005
0.00512598
1.70929e-005
0.00425156
0.00383928
2.06528e-005
1.42979e-005
0.000667152
2.54217e-005
0.00788075
4.12669e-006
9.02342e-005
1.45257e-005
3.92776e-005
3.68747e-005
4.32289e-005
8.04632e-005
2.39582e-007
4.14144e-005
0.000147916
6.60724e-006
0.00106212
0.00023458
5.9251e-006
2.40111e-005
0.00136969
2.31223e-005
0.000510774
2.65324e-006
0.00461939
5.85958e-005
4.57656e-005
5.601e-005
0.00185921
7.21407e-008
1.90882e-005
0.0044885
8.18857e-005
0.00539212
4.37809e-005
1.06941e-006
1.15302e-006
0.00994983
2.30907e-005
0.000455399
2.5396e-005
1.6193e-005
1.80177e-005
4.58847e-005
1.83896e-005
0.0049362
100.679
4.37583e-005
9.5002e-005
7.39738e-005
6.56965e-005
5.65003e-005
6.40644e-006
2.8972e-005
0.000115251
0.00093716
1.61342e-005
0.0053682
3.04622e-006
0.0445582
1.78692e-005
8.17531e-005
0.00107986
0.00436701
0.0043891
1.17814
1.0547e-006
0.000356556
0.000359362
1.57202e-006
4.43415e-007
3.28007e-005
1.26615e-005
0.00439766
1.25125e-005
6.03108e-005
8.59325e-005
0.00555216
0.000222909
0.0114085
2.16988e-005
2.44585e-008
0.000452852
4.14752e-005
1.06967e-005
4.0844e-005
0.000127964
1.08687e-006
2.84891e-005
6.27051e-008
0.000834762
0.00495802
4.54938e-007
1.95405e-005
1.25136e-005
0.00159475
3.33265e-008
0.000126212
2.63921e-005
6.65889e-005
8.6635e-007
0.000140277
4.89507e-007
1.62418e-005
8.11997e-005
0.00123509
3.11652e-005
0.00114699
0.00328747
0.00431276
0.00516975
4.10466e-005
0.00146675
1.39158e-005
0.000402989
5.88508e-007
1.8634e-005
1.68823e-006
7.41333e-005
1.44014e-005
0.00893309
0.00454596
0.00300585
7.14882e-009
3.87987e-005
0.0242722
0.000155278
2.5525e-005
2.0238e-005
4.57828e-005
0.00677652
5.13217e-006
2.83919e-007
3.64212e-006
5.1107e-005
0.00531951
8.76902e-005
0.00196887
0.00123465
1.62157e-006
6.4924e-006
3.13151e-005
0.0047423
1.57014e-006
2.15112e-005
1.01594e-005
1.24503e-005
0.00122545
2.66108e-008
1.70796e-005
1.20574e-006
3.15626e-005
9.5135e-006
0.00414086
1.12177e-005
3.88088e-005
2.91756e-005
2.2317e-005
0.00629013
7.00978e-006
2.29444e-005
0.00511537
5.73859e-006
0.00449612
5.74063e-005
8.21002e-006
1.78064e-005
3.58875e-005
2.21651e-005
3.4522e-005
0.00294578
5.32358e-006
7.94513e-006
4.21756e-005
2.23086e-005
2.46706e-005
0.00254381
1.00984e-007
1.82243e-005
0.00102523
0.00490155
8.73774e-006
0.0100575
4.09622e-005
3.66522e-005
0.000993855
6.63854e-005
0.00719854
6.99329e-006
6.06978e-005
5.0693e-005
8.02602e-005
1.1477e-005
0.00375088
0.000134624
3.79887e-005
0.000776832
0.000110755
1.76949e-006
5.57371e-007
1.18167e-006
8.56473e-007
4.12532e-005
3.50599e-006
1.5162e-005
0.000499182
7.41376e-005
2.94524e-005
1.48116e-005
6.14642e-005
3.80107e-007
0.00426879
0.0640812
2.2353e-007
0.000664309
0.000154287
1.39607e-006
1.32432e-005
0.00453033
0.000163203
2.29962e-005
0.00443297
0.000127508
3.51212e-005
6.91828e-005
2.75267e-006
3.94214e-005
2.19976e-005
4.39866e-005
6.1257e-005
5.62076e-006
1.20159e-005
0.00227899
3.15632e-005
1.4554e-005
2.03799e-006
0.000390856
4.36643e-005
0.000804768
0.0481429
3.2891e-005
7.9554e-006
3.41604e-005
0.0324286
0.000573619
0.00261186
2.80955e-005
0.00351109
3.54695e-005
1.01621e-006
8.41924e-005
5.17038e-005
0.000691268
3.09555e-006
0.00794682
2.60151e-005
1.06393e-005
1.18443e-007
0.000471729
0.00172505
4.25455e-005
0.00126418
4.05297e-007
1.99683e-005
0.000282762
0.00020145
3.99361e-005
0.000444588
1.07996e-005
1.01197e-005
0.00077136
1.61892e-005
2.06225e-005
3.74422e-005
0.00150565
3.25932e-007
3.28004e-005
3.59779e-005
0.00495123
0.000119875
3.28319e-005
0.000124471
3.43227e-005
1.09673e-005
8.72675e-005
5.46276e-005
1.46685e-005
1.86535e-005
3.65543e-006
1.61809e-005
1.93932e-005
5.92625e-005
9.53781e-008
5.58811e-008
0.0116459
1.83545e-006
4.55332e-005
0.00294242
3.08433e-006
7.37176e-005
0.000908713
0.00125384
4.73483e-005
1.19423e-005
1.21676e-005
3.57986e-005
4.00455e-005
0.000366611
0.00244025
3.6605e-007
0.000215061
0.00104217
1.61571e-005
8.26272e-006
1.27399e-006
3.43289e-006
0.186159
4.22064e-005
6.89073e-005
4.19442e-005
0.0339453
0.00293828
9.5819e-006
9.4904e-006
0.00360822
0.093767
1.61598e-006
3.6689e-007
4.13705e-005
3.95114e-007
9.88234e-007
0.00478562
3.48956e-006
4.01608e-007
0.00445389
4.17421e-005
7.94519e-005
0.0112492
0.00248062
1.2496e-006
0.00133314
7.32679e-005
3.25645e-006
1.99426e-005
2.90263e-005
5.39997e-005
2.02552e-006
0.00150354
3.49073e-005
0.000222666
0.00390849
4.05328e-005
5.86867e-006
0.00295219
4.30318e-006
5.29214e-005
9.69725e-005
0.00293987
0.000638046
0.000103427
0.00126204
8.30123e-005
9.27518e-006
7.99523e-005
3.44955e-006
1.65168e-005
1.83148e-005
3.92271e-005
0.00294525
9.31131e-005
2.95319e-005
4.73057e-006
0.00429604
0.004302
1.23662e-006
1.92082e-006
0.00403939
0.000224851
4.72654e-007
0.000500272
8.81239e-006
0.00179188
2.58078e-005
3.01428e-005
4.1609e-005
2.68822e-005
2.68397e-005
1.91646e-006
110.48
3.09052e-005
0.00520226
1.12357e-005
8.82323e-005
0.00523008
4.87534e-005
1.45478e-006
0.000216721
1.22284e-005
0.000624194
4.00075e-006
0.00475881
3.75798e-007
4.78502e-005
4.48533e-005
2.02548e-005
7.69102e-006
2.34124e-005
1.21666e-005
0.00281132
1.75501e-005
7.45165e-008
8.2881e-006
9.42894e-006
3.10319e-005
0.00293373
0.00476177
2.86344e-005
0.00689767
0.0016319
0.0260806
9.69104e-005
1.73272e-005
8.30369e-006
0.00444694
2.07529e-005
2.61272e-009
1.92975e-005
2.71204e-005
4.75084e-006
7.04805e-008
4.40011e-005
3.90075e-005
5.52258e-005
4.97412e-005
0.00158298
5.23876e-005
3.05693e-007
4.01896e-005
0.0019635
4.07069e-005
4.68487e-007
0.00123632
1.71618e-005
8.30962e-005
1.82547e-006
4.87125e-006
0.000295273
7.21214e-006
9.83855e-006
6.83159e-006
8.7085e-005
0.00571724
6.31956e-005
0.00171119
0.00127483
0.000111633
3.98076e-005
2.95185e-005
2.09289e-009
1.02036e-006
4.68213e-005
6.29683e-005
7.55796e-008
1.2154e-006
9.61805e-009
3.91416e-005
0.00345616
0.00163155
0.00515883
5.88424e-005
3.46835e-005
5.64703e-005
0.00341926
3.32007e-005
0.00528641
2.57849e-005
2.46923e-005
4.5833e-006
1.43521e-005
6.38545e-006
9.34127e-005
3.44941e-005
3.75664e-005
2.0473e-005
3.09392e-005
4.71319e-006
0.000448663
0.00448457
7.55333e-006
2.27735e-006
4.21053e-005
2.58886e-005
6.52489e-006
9.11766e-007
1.06399e-005
6.83157e-006
2.44256e-005
206.546
3.23534e-005
5.2212e-005
5.32959e-005
0.00434776
0.00489273
0.00355261
3.66352e-005
8.2684e-006
0.000215255
0.0050267
1.44904e-005
1.70115e-005
3.52974e-006
5.84773e-005
5.59125e-007
1.24148e-006
0.000105507
3.81876e-007
8.05001e-005
1.0079e-006
0.00116369
6.08943e-005
0.000133222
2.90111e-005
2.92636e-005
5.03347e-005
3.37253e-005
0.00252581
3.71068e-005
0.00031705
2.83882e-005
0.00504933
0.00394673
1.08768e-006
3.59812e-007
2.94986e-005
1.64557e-007
3.22555e-006
3.37659e-005
9.37434e-005
0.00532186
1.96709e-005
0.00501287
1.7535e-006
5.35475e-005
6.58153e-006
6.34932e-005
6.60487e-005
0.829943
0.000618787
5.01057e-005
0.000156412
8.48939e-005
5.96923e-006
0.00153065
1.80877e-005
1.92984e-005
4.07886e-005
1.37668e-007
0.100583
2.49943e-005
0.00967744
5.69964e-006
1.15656e-006
1.29084e-006
7.81364e-005
3.77147e-005
9.46022e-005
5.22863e-006
0.00455654
0.00132417
2.28378e-010
7.8134e-007
6.85761e-005
4.28184e-005
7.05116e-006
0.000715777
1.96973e-005
0.00015613
6.34555e-005
0.000457947
0.00599486
0.000663097
2.99464e-005
1.61828e-006
5.21927e-005
2.76455e-005
0.000103346
2.35189e-005
0.000151285
0.000813419
8.0111e-005
0.000698243
6.64851e-005
1.08875e-006
3.46682e-005
0.000615102
0.000235933
0.000791206
5.73687e-007
0.0053079
0.00438009
2.98363e-005
7.54397e-005
1.11188e-006
1.31791e-005
6.79757e-007
0.000239205
3.71334e-005
2.113e-006
2.34314e-005
6.79492e-005
2.75447e-005
0.0046848
8.11982e-005
0.000283051
0.00523124
4.28784e-005
2.55809e-005
4.93363e-005
7.05023e-005
3.80747e-005
0.000140832
1.71021e-005
1.90252e-005
6.16871e-006
5.52148e-006
3.73714e-006
5.56379e-010
9.58413e-006
3.26558e-006
0.00418068
4.0075e-007
3.91003e-005
2.5869e-005
4.46827e-005
2.47881e-005
8.74456e-006
1.21163e-007
1.04512e-007
3.2524e-005
0.00476506
2.97007e-006
1.54623e-005
0.00573505
1.82676e-005
6.13139e-005
1.86111e-005
6.00505e-005
0.00394892
1.38286e-006
0.0277048
0.00446433
2.36051e-005
1.19668e-008
11.0419
1.37306e-005
3.68478e-005
7.0348e-005
0.00243528
2.66919e-005
1.72473e-005
0.000147809
7.79957e-005
2.89103e-005
9.53796e-006
9.47526e-005
0.00984283
0.00131241
2.99228e-005
0.0037179
0.000519198
1.0957e-007
3.70243e-005
0.00202687
0.00593872
0.00618162
2.91421e-005
1.9203e-005
0.0010714
5.57059e-005
2.31845e-005
2.70278e-005
0.000478278
0.00378805
3.23205e-006
6.72511e-006
1.8859e-005
2.5707e-005
0.00470686
2.37114e-005
1.17181e-005
7.92117e-005
0.00164547
0.000111422
3.39201e-005
0.00873917
0.0351775
0.00412753
0.0133106
8.39182e-007
0.000143332
0.000690511
0.000502934
5.47329e-005
8.06641e-005
1.60278e-005
2.45367e-005
0.00475787
3.72908e-007
0.000131337
0.00494162
1.54292e-005
0.0132759
0.00336396
0.00297853
135.318
4.07226e-006
1.07524e-005
3.36343e-005
5.90818e-005
0.00132777
0.000474557
1.44336e-006
1.80484e-007
4.7812e-005
7.23591e-005
1.9536e-005
7.5426e-005
3.71038e-005
0.00520992
2.94049e-005
2.89886e-005
3.07928e-005
3.6538e-007
4.43831e-005
0.00569851
1.39388e-005
7.0261e-006
0.00110797
0.000134492
5.34877e-005
2.12844e-005
3.08136e-005
4.76969e-005
1.44629e-005
6.22432e-006
0.000110532
8.66912e-006
0.00263084
0.756265
0.00900001
4.22559e-005
1.50812e-005
1.13511e-005
0.000405373
2.50048e-005
7.12594e-005
6.06762e-005
0.000235838
9.94779e-006
0.00158563
0.00432482
3.65488e-005
6.06495e-005
3.41103e-006
6.27959e-009
0.0023759
5.78896e-005
3.31747e-005
53.7312
2.48407e-005
4.26694e-005
3.02853e-005
0.00971453
3.60947e-005
2.36564e-005
0.00433441
3.07098e-005
0.000715593
7.27142e-006
0.000474121
0.000170736
0.0111018
3.17109e-005
0.000101866
4.96062e-005
3.25605e-005
0.00464348
2.27773e-005
2.04753e-005
1.83428e-005
0.000345506
3.48624e-005
0.00655968
0.000356412
0.00304504
6.90415e-005
1.98495e-005
7.19017e-006
6.66441e-005
0.000687343
3.29907e-007
2.32345e-005
0.0818705
0.00434839
4.16037e-006
0.000762887
4.4187e-006
0.00010527
1.49143e-005
0.00186702
7.38556e-006
1.95206e-006
0.00645242
0.00555747
1.12295e-005
2.78562e-005
0.0078548
7.3473e-007
0.00012558
5.70032e-005
2.22662e-005
6.73363e-005
9.88114e-007
1.44175e-005
6.12306e-005
0.00255535
2.51434e-005
0.000313254
0.00518918
0.000289258
7.83272e-008
2.81306e-005
2.75308e-005
5.20034e-005
0.0320948
0.000147476
0.00156729
0.0554599
7.9837e-005
3.20963e-005
3.12703e-005
0.0103554
4.72937e-006
2.89844e-005
5.038e-005
3.56334e-005
0.00811386
1.26789e-006
7.90378e-005
1.77158e-005
0.000222437
0.00248339
6.98809e-005
0.00452841
1.57009e-006
2.10057e-005
0.00184253
0.00290972
0.000115806
0.0889844
1.21483e-006
7.08124e-008
5.86271e-006
0.000669335
9.69788e-005
6.30574e-006
0.000201561
9.49497e-006
0.073549
1.44092e-006
3.11956e-006
1.18609e-005
1.49002e-006
0.00116616
0.0010897
2.23771e-005
0.00348739
2.82229e-005
2.51562e-005
0.00105416
1.75663e-005
0.000434161
6.38479e-005
3.7612e-005
1.40028e-005
7.91948e-005
3.68293e-007
0.000979175
3.19679e-005
1.05843e-006
0.00028996
4.89334e-005
1.44556e-005
2.83724e-005
5.65452e-007
0.00653334
1.38815e-005
0.0070056
5.55014e-005
3.17631e-005
5.92019e-005
0.00149914
0.00418476
7.8055e-005
0.00359096
0.00441952
8.66559e-005
7.93883e-005
58.003
0.000470843
1.85067e-007
3.39159e-005
0.00355773
0.000514048
2.50251e-005
0.00822786
0.00319467
0.00214817
0.00562466
2.31709e-006
2.13511e-007
1.41423e-006
3.90633e-005
2.03182e-006
0.000298856
0.0050878
5.7785e-006
0.00514188
4.53395e-007
1.44596e-006
2.82304e-005
0.00440368
0.00283183
8.37143e-005
2.9296e-005
0.0043992
1.12534e-005
4.18269e-006
3.80632e-005
3.28411e-006
0.13973
3.47731e-005
0.00226887
0.000708532
4.2625e-005
0.0012719
6.82399e-005
7.41874e-006
2.87232e-005
9.01576
4.22965e-005
0.00266771
4.92446e-005
6.13672e-006
3.70747e-005
0.0152284
0.0123083
3.58076e-007
3.35015e-005
0.0046968
3.50624e-005
0.000235979
0.000535396
0.00388662
0.0006791
3.76124e-005
3.53455e-007
0.00424725
0.00144412
0.00557444
2.08795e-005
0.0103999
0.000150284
1.44677e-005
1.79427e-008
8.81483e-006
0.000458556
0.00470508
0.000107123
0.00365085
5.26504e-005
1.1173e-005
5.1571e-005
0.000769153
1.73235e-005
1.46698e-005
3.29351e-005
8.51558e-005
6.95128e-005
0.00476663
1.24887e-005
5.87124e-005
0.00060197
1.9326e-005
9.08069e-005
0.00235424
0.000238227
9.7542e-005
1.44625e-005
2.89616e-005
4.68665e-005
4.6681e-006
1.37462e-006
4.43451e-005
0.0683717
1.35157e-006
1.07625e-006
7.97445e-005
1.84024e-005
7.26394e-005
6.43666e-005
0.00395712
0.000701593
4.56603e-005
1.66284e-006
3.74966e-007
0.0514633
6.41803e-005
2.03358e-005
3.00508e-005
0.00491034
1.35947e-005
0.00531641
0.00471012
3.27768e-007
0.00489133
0.0016153
2.15094e-006
2.32537e-005
0.00101982
7.83464e-005
2.66588e-005
2.82869e-007
2.91051e-007
8.1265e-008
1.73547e-007
1.03253e-007
1.44086e-007
2.93929e-007
2.10259e-007
2.5278e-007
8.22878e-005
0.000456843
1.21125e-005
1.09922e-006
0.00477088
2.21386e-006
80.6362
1.22388e-005
1.2064e-006
4.58711e-005
3.46432e-007
0.00489908
1.68512e-006
6.03129e-005
4.89292e-006
8.28761e-005
8.97406e-005
3.88679e-007
0.000322912
3.16449e-005
7.34494e-005
1.66158e-005
4.53919e-005
0.000427799
6.31447e-005
7.63051e-005
1.25613e-007
6.87677e-006
2.86971e-005
0.00115295
5.18956e-005
7.89511e-005
0.00641188
2.73675e-005
3.58107e-005
2.22965e-005
2.4963e-007
1.22444e-006
1.94176e-005
2.86272e-005
8.87259e-006
2.18523e-006
0.00347664
2.93863e-006
0.0227267
4.46131e-005
0.00108228
0.00128605
1.34037e-005
0.0210398
0.000293641
3.41576e-005
1.32245e-007
0.000270528
1.05223e-006
0.00418523
0.00660183
1.19068e-005
1.29986e-005
1.33984e-005
1.19188e-005
0.0191923
0.000140816
3.78335e-005
3.94416e-005
0.00151274
6.04878e-005
1.29874e-006
0.000789835
1.21503e-005
2.98818e-005
7.1577e-005
3.35438e-006
0.000159624
0.000104574
3.20301e-005
0.000145187
3.83232e-005
1.59715e-005
0.00394068
3.0246e-005
0.00597549
0.0203823
0.00482276
0.00545003
2.74999e-005
1.03607e-006
5.95992e-005
0.00277272
2.02236e-005
1.79753e-005
3.54113e-005
1.79321e-005
0.00101263
1.77748e-007
1.81639e-006
5.88853e-005
0.00464337
0.000786014
3.93422e-005
0.0042233
6.94447
2.98971e-005
0.000321335
0.00237751
0.00132323
0.00410505
1.68122e-006
0.0201555
7.04356e-005
3.82364e-005
0.00469957
0.0105539
1.37194e-005
1.02993e-005
7.57916e-006
1.09976e-011
6.04506e-005
0.000115053
4.07682e-006
6.2328e-006
3.12512e-007
0.00147315
4.84839e-006
4.76469e-005
0.000290549
1.54247e-005
3.16283e-005
1.16465e-005
7.25256e-005
0.00464134
8.61327e-005
4.83772e-006
3.77088e-005
2.87047e-005
4.25187e-005
0.000175828
3.52245e-005
0.00475968
7.58866e-006
4.41588e-005
1.50135e-005
2.35806e-006
4.41077e-006
0.0001939
0.000103272
0.00457099
5.12996
2.30941e-005
0.00215506
2.42886e-005
0.000106602
9.51946e-006
4.48877e-006
3.70043e-005
7.31451e-006
0.0024891
5.90114e-005
0.00124335
3.56268e-005
7.3711e-005
4.59357e-005
2.95715e-005
0.00579349
3.02979e-005
6.07161e-005
3.93926e-006
7.22407e-006
0.000476537
1.54376e-006
7.28598e-006
6.9771e-006
8.07974e-005
8.15408e-005
4.61536e-005
0.00108699
3.40329e-005
3.55952e-005
0.000694289
0.00992292
3.05188e-005
6.20291e-005
0.000854668
0.000334883
0.00052237
0.00574149
0.00500118
0.00314228
3.25072e-007
5.74161e-005
4.4441e-011
0.00538208
1.32895e-006
7.10484e-005
7.01663e-005
0.00026408
0.000106833
0.00177448
3.50178e-005
6.89265e-005
0.00100586
0.000140291
0.00494198
0.000109046
0.0014748
0.00421642
2.35533e-005
3.10467e-005
1.45492e-005
0.000300944
8.41405e-007
5.43439e-006
8.41107e-006
1.00794e-005
5.68443e-005
0.000137717
4.15224e-006
7.96012e-006
5.40301e-005
6.25383e-005
7.53292e-007
3.13702e-005
4.23407e-005
3.00333e-005
0.00214824
0.000277953
0.000114791
1.1964e-005
0.00307745
0.00155414
8.4971e-005
0.00436529
7.93547e-005
4.32255e-005
0.00490349
0.00952678
0.25046
1.23766e-005
0.00053001
0.00204877
5.27661e-005
0.00314049
0.00412654
4.10301e-005
2.94073e-006
5.58892e-006
1.83176e-005
1.30764e-006
6.40812e-005
9.32187e-007
1.10134e-006
0.0154811
0.0118687
3.92296e-005
0.00569266
8.09171e-005
2.52845e-005
0.000816934
4.40693e-005
0.000145469
0.00892584
6.08044e-005
7.6736e-005
1.37317e-005
1.22109e-005
0.0905361
3.10558e-005
0.00104213
8.21195e-005
2.71643e-005
1.48883e-006
3.23792e-006
7.03306e-005
0.00442606
1.31874e-005
6.93084e-005
2.26933
7.6927e-008
0.00198807
2.67727e-005
0.00280134
4.43565e-005
0.00109477
0.000215612
4.95026e-005
1.28661e-005
4.47327e-005
6.38431e-005
0.00488045
1.5203e-005
1.21772e-005
0.000118497
3.53634e-005
0.00115002
3.52792e-005
3.60929e-005
6.6599e-006
2.17462e-006
0.00596999
0.00431924
9.49228e-005
7.00045e-005
5.96263e-005
4.78977e-005
5.23229e-005
4.16823e-005
0.00275695
1.57345e-006
2.8271e-005
0.00341827
3.03348e-005
0.0561744
7.68234e-005
4.1613e-005
1.05835e-006
0.00843135
3.01996e-005
1.32337e-005
1.08575e-005
5.82853e-007
8.09838e-005
2.7285e-005
6.00238e-005
0.000105844
5.7897e-006
7.52776e-005
2.12133e-006
1.13385e-005
3.88228e-005
1.76205e-005
1.29547e-005
4.11785e-005
8.8633e-006
1.54507e-006
1.68541e-006
8.06972e-005
7.92621e-006
2.75352e-006
0.00210475
8.01145e-006
1.90298e-005
0.0129182
0.000194636
1.31479e-005
0.006221
0.0106078
8.12592e-005
4.02826e-005
0.00136008
0.00843669
3.02843e-005
0.000865253
0.0100338
7.48327e-005
0.0114751
1.17703e-007
3.00933e-005
2.70607e-007
2.79784e-006
7.3395e-005
0.000805437
5.04995e-006
4.14654e-005
0.000108084
0.00025831
4.28449e-005
4.01749e-007
4.01192e-005
8.02425e-006
2.39757e-005
1.19318e-007
2.97975e-005
1.84075e-005
1.69596e-006
3.14837e-005
5.01232e-007
0.00296342
0.00500142
1.82811e-005
1.05679e-006
0.000820046
0.000337905
0.00374767
0.000551465
5.66843e-005
5.14858e-005
1.71045e-005
0.00069232
1.3321e-006
0.000321438
6.15497e-005
1.00461e-007
1.12077e-005
3.36884e-005
1.53998e-006
3.07733e-005
1.06262e-006
7.16826e-005
0.00700854
3.19699e-005
1.71867e-005
1.35031e-005
0.000274765
6.31692e-005
5.05012e-005
0.0773254
4.05738e-005
2.8519e-005
1.5129e-006
1.74383e-005
3.09014e-005
0.000621972
3.1809e-005
0.00830511
0.00500606
0.00710651
1.30251e-006
0.00151369
7.26217e-007
7.47345e-007
3.07206e-005
1.33424e-006
3.18807e-005
3.64862e-005
4.95678e-005
1.73134e-005
5.74908e-005
3.48995e-006
2.75591e-005
1.43185e-006
0.00905435
1.34907e-005
8.48455e-005
9.81789e-007
0.00120494
4.78562e-005
1.93699e-005
0.00764287
0.0122993
3.41351e-008
0.00838167
1.39179e-006
1.87906e-005
1.18375e-005
3.77679e-005
5.87389e-005
2.27609e-005
1.6827e-005
0.00446363
1.48022e-005
7.1012e-005
0.000192752
6.41499e-005
1.57311e-006
3.02666e-005
5.85692e-005
4.87436e-005
0.00616572
7.08213e-005
3.91466e-005
0.00200242
1.23656e-005
3.1543e-005
2.91016e-005
7.38326e-005
0.00140845
0.00541411
1.02636e-006
0.000938487
1.03073e-006
1.04732e-005
0.000862524
0.000151111
8.57053e-005
1.20036e-006
1.2909e-005
1.01724e-005
3.75301e-005
0.000303178
0.00110749
4.28015e-006
3.83133e-005
2.9693e-005
4.92343e-005
0.00119984
2.67509e-005
0.78346
0.000304904
2.92808e-006
3.27226e-005
3.51688e-006
8.72077e-008
1.08658e-005
5.80157e-007
9.56096e-006
0.00494367
1.13988e-005
0.000105553
0.0467562
3.10144e-006
0.00415815
0.0152518
0.00420061
2.88192e-005
2.35986e-005
3.33912e-005
6.29371e-006
0.00179951
2.34454e-006
4.80752e-006