/*--------------------------------*- C++ -*----------------------------------*\
| =========                 |                                                 |
| \\      /  F ield         | OpenFOAM: The Open Source CFD Toolbox           |
|  \\    /   O peration     | Version:  dev                                   |
|   \\  /    A nd           | Web:      www.OpenFOAM.org                      |
|    \\/     M anipulation  |                                                 |
|*---------------------------------------------------------------------------*|
|* OpenFOAM for Windows 18.02 (v1)                                           *|
|* Built by CFD Support, www.cfdsupport.com (based on Symscape).             *|
\*---------------------------------------------------------------------------*/
FoamFile
{
    version     2.0;
    format      ascii;
    class       volScalarField;
    location    "2e-005";
    object      epsilon;
}
// * * * * * * * * * * * * * * * * * * * * * * * * * * * * * * * * * * * * * //

dimensions      [0 2 -3 0 0 0 0];

internalField   nonuniform List<scalar> 
23640
(
1.15638e+009
2.9187e+009
3.74911e+008
4.16304e+009
4.96362e+009
1.54917e+010
3.64858e+009
2.87752e+009
3.22197e+010
2.08371e+011
6.21713e+009
1.14668e+010
1.15388e+009
3.482e+009
9.7603e+010
1.20995e+010
6.39785e+008
4.06139e+010
1.53339e+010
3.26978e+010
8.47869e+009
1.03038e+009
8.69116e+009
1.65322e+010
4.38597e+009
5.41242e+009
5.10773e+010
3.20173e+010
3.55602e+008
1.38359e+009
7.86415e+008
1.32505e+009
8.48864e+009
2.13925e+010
3.80709e+010
1.32915e+011
6.23252e+008
5.28331e+008
2.46183e+009
1.12718e+010
1.55723e+010
3.07568e+010
4.71326e+009
1.64047e+009
3.5525e+009
8.52995e+010
7.5145e+008
5.6033e+009
2.01112e+011
2.72828e+009
2.99098e+008
3.24706e+010
1.6245e+011
4.68892e+008
4.10415e+009
7.51708e+011
3.25607e+010
7.66769e+009
1.48081e+009
6.22245e+009
7.61408e+008
5.993e+010
4.4317e+009
2.91718e+010
1.82718e+009
2.9717e+010
8.46525e+009
5.11366e+009
6.73144e+010
4.74379e+009
1.06886e+010
2.10089e+010
1.61463e+010
4.28932e+008
1.34335e+010
4.61181e+009
6.47254e+011
1.10564e+009
1.48338e+010
4.44365e+009
8.90168e+010
7.72708e+010
1.44268e+009
1.4432e+009
1.79959e+009
3.35636e+011
3.34058e+010
5.34291e+010
2.36468e+010
8.75424e+010
2.24294e+009
8.54102e+009
8.31774e+010
1.48482e+010
3.22266e+010
1.87503e+009
2.74045e+010
3.43425e+011
9.71163e+009
1.02619e+011
7.43928e+010
4.75076e+008
2.34539e+010
2.65109e+008
3.05568e+010
4.95029e+008
7.93753e+009
3.09859e+008
1.234e+010
1.13452e+010
6.21175e+008
1.56781e+010
1.29367e+010
1.52284e+010
5.17422e+011
1.79784e+008
1.05686e+011
5.42973e+008
1.03314e+009
1.57324e+009
3.00313e+010
1.28636e+009
2.59782e+011
1.15621e+009
5.513e+010
1.71235e+010
2.31044e+008
1.45166e+011
1.50894e+010
1.31471e+010
3.2842e+010
6.13534e+010
1.15965e+009
5.63616e+010
3.2025e+008
6.49969e+010
6.98217e+009
4.75886e+009
6.41156e+009
2.42444e+010
1.07462e+010
3.33871e+010
1.74123e+010
6.16594e+009
2.15758e+010
7.22816e+009
5.64368e+009
8.20109e+009
2.37846e+009
6.82153e+010
2.7037e+009
1.1419e+010
1.52433e+009
4.01532e+009
4.46168e+010
3.59279e+008
3.7127e+009
1.71689e+010
7.54381e+009
5.10724e+010
8.41381e+010
2.20459e+011
1.36832e+011
5.76068e+009
2.05894e+008
1.61895e+008
8.59626e+009
1.74258e+011
7.27352e+009
5.95214e+010
5.4977e+009
4.93391e+011
1.31256e+010
1.19622e+010
5.06778e+009
5.45607e+009
1.35637e+010
4.534e+011
4.42858e+009
1.39859e+009
3.52789e+009
3.15427e+011
4.64911e+009
3.22183e+010
3.92963e+008
5.72778e+010
5.42821e+010
5.59541e+010
8.01633e+009
3.36524e+010
4.17053e+010
6.16226e+009
1.65783e+009
1.5179e+009
3.41755e+008
1.55781e+010
3.02805e+010
3.31921e+010
2.56487e+011
8.10858e+010
9.86355e+009
9.01782e+008
7.13069e+008
2.918e+010
1.25171e+010
1.78257e+009
2.89875e+011
8.67471e+009
3.42311e+011
7.41813e+009
3.90302e+009
5.22494e+009
1.32555e+009
1.82413e+009
1.1397e+010
9.90309e+009
6.47369e+009
3.20777e+010
6.65267e+009
8.9592e+008
1.37034e+009
6.30325e+009
9.75843e+009
1.17816e+010
1.54908e+010
1.20311e+010
7.17466e+009
1.26311e+009
1.37636e+009
2.21869e+009
1.17325e+009
3.25674e+008
2.88523e+010
5.71536e+009
1.67101e+010
7.51155e+010
1.01748e+010
1.01495e+010
2.34585e+009
1.33903e+011
7.4291e+010
5.79434e+011
1.57106e+010
2.85793e+010
4.10957e+009
3.42624e+008
1.97949e+009
3.50137e+011
4.18573e+009
1.4206e+010
5.79491e+009
6.55629e+009
7.28687e+008
5.18479e+009
1.55119e+009
1.09353e+010
8.7478e+008
3.46813e+008
6.5732e+009
7.42323e+009
4.04351e+009
6.45496e+008
6.31343e+010
1.14785e+010
5.21938e+008
4.74753e+009
5.01167e+010
8.8286e+009
1.56576e+009
3.71927e+010
5.95135e+010
2.84389e+008
3.45589e+010
7.22263e+009
1.61236e+011
2.06785e+010
4.14314e+008
1.32526e+009
2.82558e+010
1.16518e+010
1.83023e+010
1.18612e+009
6.44808e+010
5.77579e+009
1.66723e+010
6.50931e+010
5.72754e+009
4.50007e+010
4.40452e+009
5.86253e+009
2.58456e+009
4.53091e+008
9.63101e+009
6.34888e+009
6.52378e+009
5.03106e+009
1.21983e+010
4.39466e+008
6.63191e+009
1.04088e+009
1.7868e+011
2.79469e+010
1.13073e+009
8.87132e+009
7.37664e+009
2.47772e+008
6.33537e+010
7.78893e+010
4.05884e+009
1.7489e+010
2.88064e+008
1.13283e+011
5.056e+009
1.49087e+010
1.01858e+010
5.03555e+010
5.10661e+010
4.63934e+008
3.11736e+010
1.32873e+010
1.54267e+009
2.00873e+010
3.82872e+010
3.15968e+010
3.21913e+008
1.60325e+011
4.63046e+010
5.19831e+009
1.989e+009
4.81966e+008
8.11968e+010
2.88436e+009
3.26641e+010
4.2141e+010
4.64594e+009
8.46298e+009
2.42524e+011
5.02991e+010
4.68116e+009
6.44949e+009
3.55107e+011
2.54231e+010
4.42527e+010
1.45468e+009
6.7284e+009
4.41122e+010
6.36115e+010
1.03687e+010
1.18961e+010
2.79735e+010
7.30152e+009
1.55536e+011
3.19902e+008
5.22451e+008
3.72001e+010
2.12281e+008
2.35644e+009
6.01872e+008
4.53669e+009
6.21067e+009
5.35891e+010
7.54522e+009
2.47099e+010
9.96063e+008
9.89478e+009
3.68176e+008
2.38813e+008
7.72334e+010
1.48752e+010
1.49301e+009
2.8773e+011
5.54774e+010
2.84108e+008
9.91878e+009
5.33845e+010
3.10454e+008
1.00095e+010
7.00786e+008
5.3183e+009
4.76599e+010
1.60978e+010
5.47664e+010
9.25627e+009
2.50394e+010
1.24942e+010
3.6775e+008
1.13848e+011
1.49121e+008
1.3981e+010
2.55972e+008
4.01433e+010
2.25416e+010
4.61314e+011
1.57001e+011
6.37921e+010
1.2079e+010
1.463e+009
7.14661e+008
7.09395e+008
7.15876e+010
2.8246e+009
2.54011e+010
4.31605e+010
2.71083e+008
1.08563e+009
6.65006e+009
5.47657e+009
3.84963e+008
9.74992e+010
7.87357e+009
3.14425e+010
4.20347e+009
5.83296e+009
5.43346e+010
5.56756e+009
1.42865e+010
6.66523e+010
1.37894e+009
6.05215e+010
2.47409e+010
6.37938e+009
3.99932e+010
6.65119e+009
3.21054e+010
2.32426e+011
2.40523e+008
1.36761e+009
2.6371e+011
7.44758e+009
3.57753e+009
6.07659e+008
3.35367e+009
7.56939e+009
9.1691e+009
4.05603e+010
6.58731e+009
2.69166e+011
9.23226e+010
1.72135e+011
1.27103e+010
4.27045e+010
4.762e+009
1.47805e+011
2.05609e+011
4.63025e+010
7.66827e+009
6.89364e+010
6.50323e+010
8.51828e+009
7.88942e+010
2.1269e+006
8.34007e+009
5.04385e+009
2.23246e+010
7.3063e+010
3.9342e+008
3.87746e+009
6.14457e+010
8.37237e+009
9.78158e+010
5.84041e+010
1.62795e+010
1.51236e+010
1.99465e+007
9.98504e+010
1.54072e+009
1.17414e+011
7.38326e+011
9.92156e+010
4.27149e+010
3.1653e+010
2.22066e+009
3.92178e+009
8.32766e+008
2.46969e+009
6.8913e+010
4.11375e+009
7.30027e+007
1.09752e+011
6.3731e+009
7.51052e+009
5.7353e+008
2.33953e+010
2.00075e+011
5.36209e+010
3.65987e+011
1.03623e+010
1.33878e+009
8.23375e+008
6.54438e+008
4.67992e+010
9.74528e+009
1.00805e+009
1.54371e+010
5.15545e+009
6.5424e+009
7.86227e+010
9.49988e+010
4.20165e+011
8.69868e+008
1.78004e+009
4.58998e+009
2.43555e+008
7.81093e+009
2.18627e+009
1.52983e+009
6.73246e+010
2.77155e+008
4.34862e+008
1.12413e+009
7.69163e+010
1.44215e+009
1.94055e+011
2.93441e+011
9.57113e+009
1.44073e+010
1.42269e+010
3.5299e+008
2.77647e+010
5.3735e+009
3.41849e+010
4.37434e+010
1.31361e+006
1.12562e+011
4.17442e+009
1.33091e+010
1.06975e+010
5.86887e+010
1.56548e+010
1.45836e+009
7.72821e+009
1.45712e+010
1.08707e+011
2.11943e+010
5.24222e+011
1.4148e+009
1.61589e+011
6.13011e+010
3.12321e+008
3.91232e+010
4.92105e+009
2.17435e+009
5.49061e+009
6.49485e+009
4.62379e+008
4.62e+009
1.02233e+011
2.07652e+010
3.06585e+009
3.10438e+009
1.4734e+011
5.78117e+009
7.03882e+011
9.85869e+008
1.7358e+011
1.50538e+009
5.81615e+009
6.17517e+011
6.99388e+009
4.81813e+009
2.61835e+009
7.44589e+009
8.303e+009
8.30153e+010
2.14744e+010
9.08265e+009
1.30467e+010
1.12419e+010
3.99843e+011
1.1987e+011
3.21107e+006
3.82883e+009
5.06092e+009
4.40136e+008
5.04947e+008
1.50311e+010
2.75285e+011
3.34264e+011
4.13634e+010
6.62976e+008
3.18452e+009
7.19238e+009
5.74032e+008
6.13086e+010
1.44936e+010
2.31207e+010
3.66839e+009
4.02284e+010
5.28607e+009
1.10824e+010
4.19709e+009
4.13073e+009
1.47379e+010
2.55294e+010
1.50529e+009
3.04331e+010
3.03273e+010
5.77961e+010
2.24769e+009
1.02639e+011
5.58662e+009
8.31898e+009
7.07769e+009
1.1343e+011
1.41921e+009
2.32151e+011
7.98273e+010
1.70501e+009
1.36469e+010
1.09493e+010
1.85301e+009
2.75587e+009
1.09018e+010
2.01555e+009
1.76725e+010
7.50881e+010
4.30169e+011
8.99082e+009
4.55234e+008
1.35623e+009
1.27899e+010
1.2621e+010
1.77245e+010
4.1752e+009
5.78348e+009
3.34705e+010
6.73799e+009
9.52264e+009
1.93664e+009
1.41765e+011
3.25336e+008
7.58749e+009
2.49546e+009
1.39769e+009
5.22057e+008
4.1392e+009
1.83091e+009
7.09393e+009
6.97234e+008
8.8788e+010
2.65642e+010
2.59962e+011
7.66172e+009
1.09763e+009
3.26847e+011
7.30454e+009
9.77219e+009
5.88398e+010
3.78707e+008
1.06019e+010
9.99755e+010
1.63428e+009
2.39593e+010
2.08612e+009
3.09147e+010
1.36292e+010
4.05788e+011
1.02176e+010
1.23903e+009
2.95017e+009
2.28445e+010
9.83192e+010
1.7784e+008
1.81051e+011
1.46149e+009
1.6443e+009
2.10944e+009
2.08654e+009
2.15131e+010
1.22997e+010
1.30524e+009
9.12149e+009
7.38027e+009
9.2982e+010
2.68565e+010
4.49937e+008
1.4022e+009
5.30633e+009
6.74324e+008
4.55097e+009
6.50435e+009
6.37854e+009
5.93211e+009
2.27568e+009
1.62753e+010
2.75458e+008
4.8635e+009
1.97968e+010
9.76118e+010
1.3544e+009
3.43573e+008
3.2255e+011
9.5752e+010
2.33576e+009
4.57946e+010
6.01445e+008
3.69975e+010
1.57786e+010
1.17914e+010
1.24031e+010
5.5526e+009
2.78057e+010
2.37182e+010
1.70872e+010
5.3589e+008
2.58097e+010
1.58636e+010
5.81661e+010
8.1262e+009
7.72193e+010
1.43861e+010
1.46982e+010
3.29378e+011
8.50814e+008
1.13285e+009
1.34192e+011
2.8985e+010
5.28007e+009
9.40303e+009
1.43044e+011
4.74558e+010
6.76451e+010
5.38703e+010
1.31356e+009
4.4048e+010
1.3464e+008
5.20066e+008
3.50151e+008
2.38172e+010
4.08221e+009
8.04601e+009
6.36598e+008
4.6797e+009
9.72163e+009
3.5966e+008
1.16219e+010
2.62973e+011
1.48452e+010
4.56726e+009
8.93893e+009
4.2258e+009
1.6055e+010
4.52152e+009
2.72784e+011
2.63153e+008
9.12841e+010
6.65763e+008
6.94349e+010
2.71156e+008
1.6865e+009
4.70137e+010
2.36404e+008
3.45595e+009
1.47514e+009
3.2025e+009
7.0331e+007
4.76335e+010
3.32846e+008
3.51869e+010
1.15442e+010
4.67228e+008
1.47618e+009
9.59988e+010
3.882e+009
5.06527e+009
3.46033e+011
5.40514e+009
2.17506e+010
2.05699e+010
4.19861e+010
4.36561e+010
1.87152e+010
9.88696e+010
1.36753e+010
2.34655e+010
1.19781e+009
6.47173e+009
5.49574e+009
3.93139e+010
3.62522e+011
4.39798e+010
1.11418e+009
8.90084e+008
3.83379e+011
2.82106e+011
1.07551e+010
5.7592e+010
2.43293e+008
3.40534e+010
1.29132e+010
7.73188e+008
1.24879e+011
2.19044e+010
2.03462e+009
2.08881e+009
1.12205e+010
4.64424e+009
4.77907e+009
9.02812e+008
1.20478e+010
2.14123e+010
4.01207e+010
5.13171e+009
5.82609e+008
7.10467e+010
1.22257e+010
5.28235e+009
1.44323e+010
5.37263e+009
1.629e+009
1.90728e+011
1.73262e+010
6.01534e+009
5.8101e+009
2.35232e+011
5.42274e+010
3.5933e+009
1.38595e+011
9.51457e+010
1.32118e+010
6.20845e+009
9.25291e+011
9.96145e+010
3.24925e+010
1.23478e+011
8.72116e+009
3.39286e+010
7.64313e+008
4.99554e+010
8.75039e+010
1.50768e+009
4.7272e+010
6.9379e+008
2.71751e+010
1.33174e+010
4.39078e+009
1.67044e+010
4.46968e+010
8.23657e+008
1.26208e+009
2.70601e+010
3.1983e+010
6.91345e+009
2.04114e+010
3.39813e+008
3.66327e+008
4.01508e+009
1.56366e+009
1.20948e+010
5.23937e+009
1.30619e+009
1.11018e+009
9.42867e+010
2.01145e+009
1.71293e+010
2.95705e+006
7.75939e+009
6.58809e+010
2.35489e+010
9.43083e+010
1.15851e+011
1.05969e+009
2.05734e+009
2.43095e+010
5.56681e+010
1.0377e+009
7.04644e+009
6.33863e+008
2.91951e+009
1.02869e+011
1.81903e+011
8.42872e+009
4.73623e+009
7.02472e+009
1.88931e+008
3.74575e+008
3.78455e+010
2.78593e+011
2.85081e+008
2.47902e+008
4.14594e+010
1.11461e+009
2.7605e+010
8.84182e+008
2.80778e+011
4.65513e+010
4.49888e+009
3.34641e+010
4.83709e+009
2.38217e+009
8.26887e+008
5.5457e+010
1.42833e+010
2.68051e+011
3.97101e+010
4.38914e+010
5.20768e+011
4.79416e+009
1.20818e+009
1.53992e+010
1.03488e+010
2.61096e+011
4.62294e+009
8.6861e+008
7.67967e+010
8.95513e+008
6.28494e+010
4.43782e+009
1.82701e+010
3.72382e+008
1.88713e+011
2.69411e+008
2.19124e+011
5.48412e+010
2.79897e+010
1.83872e+009
5.2954e+010
6.02011e+009
1.16278e+010
4.91149e+009
2.63057e+010
2.47104e+010
1.29459e+009
1.47295e+010
2.43297e+008
1.22402e+011
3.56647e+008
5.87314e+009
1.8576e+011
2.13376e+010
2.77246e+010
1.51737e+010
1.86222e+008
2.34803e+010
3.87308e+009
7.30655e+010
1.28898e+011
1.55887e+009
9.08874e+009
4.39018e+009
4.19478e+011
2.62689e+008
2.59546e+011
1.62024e+010
4.85713e+009
8.56637e+010
6.6312e+009
7.20492e+010
2.98407e+008
6.77526e+008
1.20977e+010
6.37089e+009
4.27993e+008
1.45212e+011
2.56635e+009
1.12038e+009
8.39106e+009
1.8729e+009
4.62111e+009
2.72092e+008
2.69614e+010
2.06212e+009
1.24125e+010
1.72143e+009
1.41615e+010
4.27964e+009
6.38155e+009
1.15718e+010
1.47913e+009
5.40607e+009
8.18387e+009
1.04086e+009
6.20432e+009
5.74153e+009
1.9502e+011
1.14906e+009
1.89644e+010
1.46274e+011
1.89155e+010
5.3794e+009
4.24599e+011
1.87481e+009
1.25192e+010
6.68795e+009
5.56219e+009
1.5347e+010
9.87422e+008
1.35118e+009
9.70011e+009
1.56328e+010
1.86231e+009
4.88209e+009
5.01553e+009
1.95211e+010
8.6641e+009
4.69278e+009
1.05709e+010
1.49883e+009
1.37731e+010
3.55201e+010
4.03816e+010
1.58362e+009
3.94684e+010
3.51367e+010
8.00475e+010
6.19323e+010
1.23624e+011
3.09969e+008
4.03817e+011
3.72516e+011
6.53054e+008
2.23116e+009
6.79661e+008
3.50418e+009
1.43857e+010
4.4889e+010
2.6511e+009
3.92739e+009
2.46428e+010
7.95057e+011
1.4005e+010
2.46401e+009
3.62284e+008
1.29118e+010
3.79365e+010
1.59262e+009
3.5768e+009
6.18637e+009
8.10482e+010
5.89682e+009
2.008e+010
4.32464e+010
3.30965e+009
2.55366e+010
6.72911e+008
2.54737e+009
1.29172e+009
7.84041e+010
3.39996e+009
8.03895e+008
2.14266e+009
6.32686e+009
1.18713e+011
3.68148e+009
4.75974e+008
9.77873e+010
3.73075e+010
6.83509e+010
2.78326e+009
2.92532e+010
1.92477e+009
9.72563e+009
3.51528e+009
1.36358e+010
1.49076e+010
1.97439e+009
3.62856e+010
3.62812e+009
5.12049e+011
1.81737e+010
1.12478e+010
1.69561e+010
1.01207e+009
4.14674e+009
5.91064e+009
2.08514e+009
8.75474e+008
6.41491e+010
7.28786e+010
2.57318e+010
7.65514e+009
2.86221e+008
1.90496e+011
3.45608e+011
2.20768e+011
4.50145e+009
5.47117e+010
7.42499e+008
2.61956e+009
1.19827e+010
1.07791e+009
1.47771e+011
3.59441e+010
5.39491e+010
6.94263e+011
1.03137e+011
9.59577e+010
1.36626e+010
1.87034e+010
1.6535e+010
3.15287e+010
4.20948e+009
9.30679e+008
1.38055e+011
4.95571e+011
1.09009e+009
1.24551e+009
6.05017e+008
1.04013e+011
4.67926e+009
1.36114e+010
5.09844e+008
9.84743e+008
4.08596e+009
4.11037e+008
7.25924e+009
8.19411e+009
1.26951e+009
4.16697e+009
6.82189e+010
2.21056e+010
7.95394e+009
8.43722e+008
8.68179e+008
3.63716e+009
7.61215e+009
8.3867e+010
4.73381e+010
4.24174e+011
3.52491e+010
8.2535e+009
1.04562e+009
1.69654e+009
3.01027e+008
4.50019e+008
9.28265e+008
2.26288e+009
2.11414e+010
2.22604e+009
3.32758e+009
1.41648e+010
2.65517e+011
2.62089e+011
5.25044e+009
2.33785e+009
3.04649e+008
1.38121e+009
5.98406e+009
2.31518e+011
3.83326e+008
2.77447e+010
2.78901e+011
1.91987e+008
6.06427e+009
5.89245e+009
2.57877e+011
4.10078e+009
1.07418e+010
6.26306e+008
5.47611e+010
4.10715e+010
6.52374e+008
1.72995e+009
2.61955e+009
2.23382e+010
3.25148e+008
8.0714e+010
1.47719e+011
3.22983e+010
7.42802e+009
2.04081e+010
2.34607e+011
3.15036e+010
7.73112e+008
1.32111e+011
4.84735e+010
2.00201e+010
2.39393e+010
2.27173e+010
4.2917e+010
3.19976e+010
2.66986e+011
5.29538e+010
5.05679e+011
1.8427e+011
8.84179e+010
2.12656e+009
1.3727e+010
5.6419e+010
4.05782e+009
1.0603e+009
1.53244e+010
1.19312e+010
2.93419e+008
6.2425e+008
1.06647e+010
2.11818e+011
1.82527e+008
1.65143e+010
8.12855e+008
2.63889e+010
1.77147e+009
5.80565e+009
5.91904e+009
3.14734e+009
8.41936e+009
4.12723e+008
2.66656e+006
3.66382e+009
5.51687e+009
4.12225e+009
3.78534e+010
5.43711e+009
1.16261e+010
2.75411e+008
3.61906e+010
2.71223e+011
1.23564e+010
5.77287e+011
5.90908e+009
2.29118e+008
1.21785e+010
7.21583e+009
6.75151e+009
1.6446e+009
6.52241e+009
8.01806e+008
4.01184e+010
1.32279e+009
5.71509e+008
2.73137e+009
3.25282e+011
2.03192e+009
4.39343e+010
6.56548e+009
1.45809e+010
4.35958e+009
8.9855e+010
3.75228e+009
4.77113e+010
9.97459e+010
2.27209e+009
1.92915e+010
1.99252e+009
1.64673e+008
4.59169e+009
1.02401e+010
5.14556e+008
1.06582e+009
7.59314e+009
1.21723e+010
4.64253e+010
1.22467e+010
8.45811e+009
2.17371e+010
9.13296e+008
7.09049e+009
3.98371e+010
6.45027e+009
4.0043e+011
1.39796e+011
1.7744e+011
3.64211e+010
3.09487e+008
2.37998e+011
3.87585e+010
6.64888e+008
2.13551e+009
7.13185e+008
5.29e+010
5.28336e+009
1.61268e+010
2.58806e+010
4.33526e+010
6.42987e+010
2.19009e+009
6.62219e+009
1.4014e+009
3.17063e+008
2.56465e+009
2.97845e+010
1.76644e+009
4.50104e+011
2.17901e+008
6.55157e+009
5.41551e+009
5.16628e+010
5.42149e+009
2.42768e+010
1.80523e+009
2.19464e+010
3.93454e+010
1.61696e+010
7.19894e+009
7.77316e+010
1.33922e+009
5.83913e+008
8.81514e+008
1.33018e+011
5.17779e+010
1.39997e+010
5.29891e+010
1.95096e+011
1.97888e+009
4.50976e+011
5.16124e+010
1.59015e+010
1.69293e+009
4.11313e+008
8.31395e+009
8.29324e+009
6.15087e+008
2.90367e+011
7.68386e+008
6.74694e+008
1.88842e+009
1.45917e+006
1.02196e+011
1.16916e+010
3.62968e+010
1.57312e+010
6.50409e+009
5.50809e+009
2.62264e+009
2.26035e+011
3.25987e+010
9.92627e+009
3.57323e+009
6.0225e+009
6.12389e+008
3.23836e+010
7.9491e+008
3.4638e+008
4.19434e+010
1.727e+008
6.55546e+010
3.47874e+008
8.53555e+009
5.56434e+011
4.17045e+010
3.82108e+009
1.10301e+010
9.24669e+009
1.41185e+010
6.69807e+009
2.66371e+009
1.07324e+011
1.07295e+010
4.58171e+009
4.88615e+009
2.59911e+008
3.20476e+008
1.63357e+009
8.22604e+008
7.20812e+008
3.6469e+010
5.62188e+010
7.09658e+009
2.0262e+011
4.6663e+009
2.53956e+011
2.20858e+010
5.87832e+008
4.47651e+010
2.40233e+010
2.45466e+008
9.93998e+009
3.13519e+010
1.75671e+011
6.38103e+010
3.80037e+011
1.84537e+010
1.08782e+009
4.22114e+009
2.2502e+010
2.85963e+009
2.05819e+009
2.11491e+009
4.53038e+009
7.08202e+008
2.45082e+008
3.82034e+008
6.16244e+009
1.28703e+010
1.24053e+011
2.23356e+011
1.56138e+010
7.29643e+009
3.02805e+009
7.85678e+008
4.07486e+009
7.10905e+009
6.00405e+008
6.93658e+010
8.56885e+010
2.94731e+011
3.30691e+010
6.35936e+010
4.94456e+009
5.53433e+010
6.81611e+009
4.05897e+008
1.38109e+010
1.31838e+011
1.78946e+011
6.12147e+009
3.94604e+010
5.14674e+010
1.86126e+010
8.66619e+010
7.58678e+010
5.70635e+008
3.76922e+009
2.08062e+010
7.33986e+010
2.05618e+010
2.94886e+008
5.36923e+009
3.29978e+010
7.38724e+010
6.80393e+009
2.52736e+008
2.13256e+011
1.16263e+009
1.83828e+010
1.1696e+010
4.14817e+008
7.25151e+009
4.62665e+010
4.09698e+009
5.99983e+009
2.51768e+010
8.03076e+010
4.59652e+009
9.55951e+009
5.17868e+009
3.42584e+010
3.41714e+010
8.68696e+009
4.20296e+010
1.08448e+009
6.93445e+009
6.80526e+008
2.50095e+011
4.93005e+008
2.65353e+009
2.85462e+011
4.58603e+008
1.14223e+010
1.71634e+008
5.41109e+009
1.51054e+009
9.26828e+010
6.24515e+009
2.0658e+009
1.52965e+009
4.46366e+008
1.79951e+009
9.3933e+009
2.99867e+011
1.06755e+009
1.05265e+010
1.13848e+009
2.50735e+010
2.27104e+009
1.03682e+011
3.78093e+010
6.00929e+011
3.68269e+009
1.23128e+010
6.26216e+009
4.72525e+008
2.08209e+007
9.87148e+008
2.13074e+010
1.66265e+011
5.74476e+009
5.03712e+009
9.72521e+010
3.58692e+010
6.66952e+009
1.14912e+010
2.01787e+011
5.80026e+010
6.14285e+009
2.11352e+010
8.11198e+009
3.75766e+010
4.24002e+010
1.44964e+009
5.4293e+010
2.6623e+010
4.9563e+009
4.36784e+009
8.66127e+010
4.4304e+009
2.38083e+010
1.62224e+010
1.24676e+011
6.18712e+009
5.13935e+010
7.24648e+009
4.72676e+008
7.93828e+008
4.12904e+009
6.2068e+009
2.92203e+010
6.50871e+009
9.78312e+008
6.17451e+009
6.71774e+009
1.4787e+011
9.51156e+009
4.05659e+009
3.27983e+009
4.94778e+009
6.81178e+009
6.17195e+008
4.11974e+010
2.01449e+010
1.65015e+010
2.3371e+010
6.15285e+010
3.57413e+009
1.69814e+009
2.65114e+010
2.71997e+011
1.35546e+011
1.4079e+010
3.5139e+009
4.16478e+009
9.7221e+009
5.58397e+009
2.25905e+006
6.25195e+008
2.36137e+009
2.05252e+010
2.46629e+010
9.4462e+010
2.4754e+011
3.82375e+008
5.75103e+008
1.61688e+011
3.97635e+009
6.91613e+009
2.50935e+011
1.23668e+010
4.53412e+009
4.177e+009
1.17841e+010
5.8845e+009
3.03442e+008
1.22836e+011
5.2367e+009
3.48262e+009
9.26087e+008
2.68457e+010
1.83008e+010
2.55646e+010
1.31173e+009
5.62616e+009
1.2738e+011
4.04292e+009
8.74976e+008
4.16692e+010
3.50679e+011
6.64762e+009
2.44907e+008
4.66371e+009
7.36963e+009
1.08923e+011
1.75559e+011
5.29683e+010
6.18226e+009
1.1878e+011
3.73114e+009
4.60944e+010
3.08179e+009
7.25555e+009
1.88278e+010
2.41259e+011
2.63998e+010
4.49889e+008
8.49753e+008
1.08474e+010
1.66069e+010
8.49796e+009
5.29253e+006
5.68237e+009
8.03066e+009
1.02915e+011
5.08997e+009
2.40736e+009
8.90701e+009
1.81527e+010
3.47989e+009
6.54653e+010
1.60024e+009
2.66494e+010
3.67555e+010
4.15979e+009
2.0344e+010
2.20791e+010
5.9612e+010
3.74922e+009
3.06645e+010
1.2617e+011
1.66044e+009
8.94234e+010
4.20552e+010
2.1229e+010
4.58631e+009
4.32094e+010
3.30989e+010
5.48591e+009
1.70211e+011
1.86051e+009
4.79345e+009
5.16905e+010
1.64001e+008
1.23677e+011
1.98473e+009
3.24247e+010
3.71813e+011
9.11408e+009
2.0546e+009
2.6051e+011
1.06383e+009
6.36328e+010
1.61518e+009
3.30545e+011
4.30799e+009
4.45683e+009
8.06357e+008
2.98967e+010
4.16378e+009
1.71766e+009
3.29231e+010
1.35395e+010
7.63291e+009
6.46916e+010
3.99101e+008
3.48755e+009
1.6455e+010
1.05919e+010
4.66522e+010
5.61999e+010
4.84381e+009
5.00129e+010
3.45388e+009
3.13814e+010
1.44976e+009
5.35271e+010
5.45684e+009
5.85263e+010
7.76325e+009
2.81291e+009
5.44426e+009
1.00255e+010
2.4977e+009
4.04067e+009
6.27042e+008
1.59087e+009
1.40211e+010
7.00627e+009
4.1271e+009
3.02852e+008
2.77874e+010
1.06553e+011
1.66795e+010
5.75504e+009
5.2998e+010
5.72121e+009
3.38895e+008
1.29163e+009
6.41451e+009
2.39069e+010
3.38874e+010
1.84605e+009
4.48083e+008
1.32052e+009
1.01891e+009
5.83811e+010
7.20352e+010
1.58863e+009
6.11185e+010
8.9369e+008
2.23951e+009
4.01581e+008
2.08025e+009
1.12093e+009
6.53823e+008
1.52468e+011
1.31287e+011
1.33922e+009
1.78404e+010
4.56469e+009
9.68637e+009
7.96147e+009
6.1184e+009
5.59917e+010
2.06121e+010
3.73244e+010
3.54423e+009
5.418e+009
1.40969e+009
2.03502e+010
1.79159e+009
2.88547e+008
3.77359e+010
2.58778e+009
1.02885e+009
8.56083e+010
2.39503e+008
4.56622e+009
1.91038e+009
1.32177e+010
2.76207e+010
2.55221e+009
3.07858e+010
6.95427e+009
1.05284e+010
6.14223e+009
9.3331e+009
1.21767e+010
1.8163e+010
5.27389e+010
4.84917e+006
1.25426e+010
1.04464e+009
9.98855e+009
9.54569e+009
1.57329e+010
2.10327e+009
4.11071e+009
8.06217e+009
7.59973e+009
4.52882e+009
8.73092e+008
4.52045e+008
4.85004e+011
6.415e+009
2.04606e+011
9.10474e+010
1.01024e+010
3.9886e+011
7.9947e+009
2.43542e+008
5.84133e+008
3.88988e+009
2.18608e+010
6.64327e+009
3.29308e+010
7.4835e+009
6.90616e+009
3.06927e+009
3.48613e+011
1.19936e+011
2.12802e+009
1.22572e+009
3.23667e+009
6.15883e+009
5.2146e+010
6.2623e+010
8.41025e+010
1.26936e+011
2.99426e+011
3.90373e+009
2.90609e+007
8.43286e+009
4.01039e+010
1.60912e+010
8.6032e+008
5.50464e+010
4.21966e+009
4.12798e+009
1.65004e+008
1.6688e+010
2.97591e+010
4.67788e+009
3.34839e+010
1.1368e+010
3.75041e+010
7.15748e+010
5.58316e+010
2.17866e+008
1.26448e+010
5.29178e+010
4.62843e+009
1.83334e+009
5.15725e+009
8.71678e+010
9.89529e+008
8.77195e+008
2.35074e+009
5.28549e+010
4.65884e+009
4.79424e+010
3.71006e+010
2.84271e+010
3.3952e+009
1.32801e+010
5.17557e+010
4.9897e+009
1.89347e+011
5.84411e+009
3.54947e+010
2.10766e+010
9.26022e+009
2.6254e+011
2.02919e+010
1.11073e+010
1.64852e+009
1.85121e+010
1.81309e+010
5.5737e+010
6.84988e+010
9.2943e+008
4.66052e+009
3.19047e+010
6.96039e+008
2.7194e+008
7.2572e+009
2.20198e+009
2.32163e+011
2.74451e+008
5.44812e+010
1.13859e+009
2.43053e+010
2.09912e+010
3.70129e+010
7.50144e+010
7.5393e+009
4.2079e+008
2.29466e+008
2.69053e+009
4.35312e+010
1.60719e+009
5.71765e+009
1.75863e+010
3.08496e+009
4.79127e+009
4.69736e+009
3.16799e+008
5.3842e+009
7.90528e+009
6.10651e+008
7.06373e+009
9.78008e+009
2.69159e+010
1.55273e+009
2.82245e+008
2.22466e+008
4.88676e+008
3.09689e+008
3.82135e+008
9.15464e+008
1.73684e+008
2.37992e+008
2.10096e+008
2.5359e+010
5.74948e+010
1.89996e+009
2.74884e+008
2.69909e+010
6.33594e+008
3.48389e+006
1.11351e+009
3.36774e+008
2.01839e+010
1.30198e+009
1.10529e+010
4.80869e+008
4.3277e+010
6.46081e+008
3.55091e+010
4.80545e+010
2.42245e+008
1.65359e+010
4.93644e+009
2.03967e+010
1.10562e+011
6.50658e+010
1.29311e+011
1.31638e+010
1.53816e+010
9.54766e+008
2.09823e+011
4.22006e+009
1.60846e+010
8.38898e+010
1.91141e+011
4.32763e+009
1.47961e+009
1.87665e+009
1.25814e+009
1.57455e+009
2.78327e+008
1.34064e+009
1.42564e+010
1.91813e+009
4.54222e+008
5.44588e+009
3.04996e+011
7.186e+009
1.05013e+010
5.25541e+010
7.63445e+009
1.2942e+009
7.18792e+009
5.10455e+010
1.72253e+010
1.25122e+009
1.11381e+011
2.41658e+008
1.11308e+010
4.29002e+009
1.27162e+009
3.46245e+009
1.22162e+009
7.73538e+008
4.0102e+009
7.53354e+010
1.00315e+011
1.58344e+010
2.27939e+010
3.33935e+009
3.18424e+008
1.58116e+010
9.50101e+008
2.1356e+011
3.5411e+010
6.41349e+011
6.95913e+010
4.95082e+010
3.12566e+009
6.00177e+010
4.07039e+010
1.2649e+009
3.71454e+010
2.65281e+010
4.82403e+009
4.89549e+009
9.42724e+009
6.27765e+009
4.62347e+009
1.07759e+009
2.23808e+010
6.05039e+009
1.0269e+011
1.83828e+011
1.83842e+009
5.08752e+009
5.17365e+010
6.32038e+008
6.05614e+008
1.34351e+010
2.75512e+010
4.91166e+010
6.10131e+009
1.7105e+010
3.63758e+007
3.18518e+009
9.38272e+010
6.92224e+009
7.49815e+009
1.61454e+010
5.9751e+008
3.97623e+009
4.74416e+010
9.10322e+010
2.67959e+010
3.98327e+009
2.97729e+009
2.21483e+009
1.71521e+009
3.87628e+009
1.2613e+010
2.36957e+010
1.91891e+009
5.61357e+008
3.77055e+011
1.02577e+010
4.35802e+011
2.28368e+011
1.58381e+011
3.5793e+009
4.44326e+010
7.41285e+008
2.6464e+010
4.68005e+009
7.46667e+010
4.34559e+011
3.40827e+009
1.13396e+011
3.35442e+010
3.75468e+010
9.29183e+010
1.09378e+010
6.42033e+008
1.02685e+010
3.94696e+009
4.4244e+008
3.78504e+011
1.66643e+011
4.94682e+010
2.20232e+010
4.68962e+007
1.34249e+009
6.30452e+009
5.49682e+009
7.56484e+010
2.19499e+009
6.53135e+008
1.06469e+010
1.5708e+009
5.49004e+010
1.67304e+010
4.58484e+010
2.08832e+010
7.13882e+009
9.62918e+009
5.30463e+010
4.48447e+009
1.14016e+011
1.64758e+010
1.11264e+009
3.10093e+011
2.37916e+011
6.58671e+011
1.5789e+009
2.10867e+011
4.97015e+010
2.67442e+010
6.68155e+010
7.87039e+009
1.76821e+010
1.90276e+009
9.56789e+009
4.06439e+009
1.19097e+010
6.05479e+009
2.10764e+010
8.84454e+010
6.01175e+010
4.57721e+009
1.53048e+010
3.88672e+010
1.58672e+009
4.38844e+010
2.67824e+009
6.8601e+009
4.01359e+008
3.25648e+010
6.04908e+010
3.56561e+010
4.71212e+010
6.34035e+010
5.05279e+009
8.75121e+010
8.14081e+009
4.28002e+010
1.6536e+010
2.20288e+010
1.9167e+010
1.77205e+010
9.04648e+009
1.06991e+010
3.62361e+009
5.59745e+010
3.08572e+008
7.40333e+008
8.17794e+008
2.40067e+009
9.53643e+010
3.15611e+011
7.6932e+008
7.62192e+008
4.90557e+010
1.51092e+010
6.29286e+008
3.50908e+010
7.23147e+009
4.55054e+009
4.17404e+010
1.66228e+010
3.13428e+010
2.43226e+011
4.76891e+010
6.73953e+009
6.7413e+010
3.2432e+010
1.80624e+010
2.4452e+010
1.62229e+010
4.02857e+009
7.54889e+008
2.81612e+009
6.11439e+010
9.32919e+009
8.58164e+010
2.33893e+010
3.48375e+010
4.13362e+010
5.76566e+008
7.19353e+008
1.2979e+009
4.74609e+011
3.80495e+009
4.27046e+008
2.61704e+008
4.23704e+009
4.07242e+009
4.16439e+009
4.96722e+009
3.12592e+010
1.48293e+009
5.75872e+010
6.98165e+010
3.49456e+010
4.04658e+009
1.40073e+010
1.31255e+011
8.66431e+008
2.81106e+009
1.84054e+009
1.63049e+010
9.62262e+009
2.35348e+010
1.05448e+010
4.39159e+008
8.9781e+008
4.0437e+009
1.35328e+010
9.29527e+008
3.9362e+009
1.00605e+008
7.42998e+008
9.52808e+009
1.46036e+009
1.05329e+010
1.24627e+010
6.48247e+010
1.51745e+011
1.63716e+010
8.38125e+008
2.60315e+010
4.55865e+010
4.59207e+009
1.1382e+011
8.13644e+008
1.10737e+011
1.68341e+010
5.03407e+010
2.05746e+009
2.98275e+010
1.82319e+009
3.30685e+008
4.40744e+009
1.07042e+010
2.15113e+010
4.0047e+009
1.83407e+010
2.1476e+010
2.45186e+010
1.46861e+010
2.30839e+010
3.78065e+008
3.71719e+010
3.28011e+010
5.65637e+009
2.81788e+009
1.57951e+010
8.9396e+009
4.27985e+011
4.27666e+009
2.70175e+010
2.84648e+009
7.86617e+008
6.54072e+008
6.39789e+009
2.06947e+009
1.96155e+010
3.10662e+010
1.13188e+009
1.1261e+011
4.44513e+008
7.3781e+008
7.99286e+009
1.70447e+011
8.57439e+008
1.3039e+010
1.84124e+011
4.24068e+008
3.59652e+008
2.62376e+010
7.48654e+008
5.80652e+008
6.11952e+009
1.91375e+009
1.32881e+009
4.00704e+009
3.08061e+010
1.98145e+011
4.86693e+009
4.5836e+009
6.43752e+009
8.68557e+010
1.15664e+011
4.25217e+009
6.40922e+010
8.7968e+009
1.25207e+010
7.23457e+009
5.85005e+009
3.95494e+008
1.32488e+010
1.28704e+009
8.68327e+008
4.09848e+009
7.50644e+010
3.62285e+011
9.0746e+009
3.39653e+010
1.59675e+010
7.25169e+009
2.12801e+008
2.18306e+009
2.09585e+009
6.66868e+009
8.31417e+008
3.29454e+009
1.63854e+009
3.54555e+008
3.09303e+011
1.86154e+008
6.49375e+009
5.3135e+009
4.38949e+011
2.68491e+008
1.525e+010
2.51775e+010
3.56794e+010
1.06779e+010
2.08455e+010
5.31232e+010
2.63467e+011
6.82231e+010
3.37321e+008
4.15753e+010
4.46717e+010
1.26223e+009