/*--------------------------------*- C++ -*----------------------------------*\
| =========                 |                                                 |
| \\      /  F ield         | OpenFOAM: The Open Source CFD Toolbox           |
|  \\    /   O peration     | Version:  dev                                   |
|   \\  /    A nd           | Web:      www.OpenFOAM.org                      |
|    \\/     M anipulation  |                                                 |
|*---------------------------------------------------------------------------*|
|* OpenFOAM for Windows 18.02 (v1)                                           *|
|* Built by CFD Support, www.cfdsupport.com (based on Symscape).             *|
\*---------------------------------------------------------------------------*/
FoamFile
{
    version     2.0;
    format      ascii;
    class       volScalarField;
    location    "2e-005";
    object      k;
}
// * * * * * * * * * * * * * * * * * * * * * * * * * * * * * * * * * * * * * //

dimensions      [0 2 -2 0 0 0 0];

internalField   nonuniform List<scalar> 
23640
(
6370.71
11670
994.334
34058.3
17068
23197.7
13903.6
11352.3
49222.9
44140.1
24974.2
27640
8824.52
14064.7
40950.6
19003.4
4625.86
49400.5
40337.8
47549.6
24345.3
862.362
25398.6
14181
15788.9
17560.9
74546
52249.5
3329.69
8397.63
6666.75
58559.3
23596.4
38794.1
40706.6
41605.8
4658.8
3701.29
3866.27
11731.2
31354.7
48627.4
16923.1
3886.59
44792.6
76518.3
5353.06
17492.4
43720.4
10927.9
58628.9
57147.4
41598.7
4009.77
34745.8
35143
36547.5
20896.4
7879.38
39921.4
6408.67
74460.6
21545.1
55927.2
8973.37
55891.6
16723
17480.9
27149.3
17223
10830.4
38299.7
28743.5
3833.95
22822.7
57716
5677.65
8504.67
39577.9
22033.6
77838.6
59003.7
7996.14
8017.49
8905.58
36077.3
57109.2
6919.48
17920.4
40246.3
10342
22824.3
47502.4
31941.7
61672.8
12317.2
54578.7
32477.7
23301.3
46114.3
45035.6
3963.3
12238.7
2785.57
35445.8
3414.19
15957.8
3223.07
29742.8
26674.2
4975.29
29168.9
30456.2
31028.2
61626.1
1717.37
40382.9
4359.77
6016.58
9314.43
9136.69
56503.5
27980.4
57424.2
69629.7
11086.1
58742.9
60562.2
23031.2
29346
55349.1
51324.3
8863.71
73980.5
2983.21
6742.78
22970.3
16641.8
25493.6
50857.5
25177.5
36873.3
28706.4
25164
23378.5
20955.4
22377.3
14053.7
10768.2
25876.6
10761.6
22688.4
8282.9
27095
58137.9
2504.65
14014.4
36652.8
17455.5
74692.5
38691.9
43307.3
42211.9
13768.8
1940.63
1549.89
12410.6
85465.8
17415.3
50047.8
17235.8
61562
22501
28928.8
18939.2
17826.4
29399.8
68424.7
22017.8
8553.76
44656.3
13887.6
16528.3
52577.8
3546.93
72374.9
72596.9
40558.5
36895
55150.4
53721
22885.3
55558.2
8282.09
3304.2
10204.9
35581.4
32363
10391.2
71957.7
32263.3
3624.83
4706.54
47697
34262.4
8889.49
9863.92
24651.6
65720.2
13673.8
14872
17822.4
7649.3
8951.85
22841
24472
18869.2
47214.6
16412.5
3441.4
7782.4
24116.7
31989.7
27869
15330.4
29193.8
21406.3
56990.3
3954.22
10264.8
6573.53
3178.87
44935.3
18917.5
35907.6
59613.7
11147.8
24748.6
10661.7
74743.9
46352.8
36442.5
31690.8
46519.3
32433.8
3442.4
9158.06
29736.4
24754.5
11437.7
41684.7
19342.6
5331.71
18619.3
8096.52
11819.6
1855.62
3357.12
21264.2
19022.2
40317.8
5108.46
47148.3
28375.7
3869.31
16681.9
70696.5
21343.6
8164.61
60458.5
34264.1
2583.29
8896
37899.5
58646.9
38433.1
3616.8
56497.8
58051.7
28483.4
10761.7
5804.9
74428.5
24817.2
28547.1
74599
16174.5
31387.4
15640.4
25001.8
14857.6
3601.92
24346
15684.4
25661.5
16947.3
27944.1
3928.54
19889.6
5965.86
86583.8
54702
57011.3
23341.5
23470.6
2390.86
54567.7
76407.9
38012.9
27222.5
2923.6
57411.9
19162.4
36497.4
32203
70651.1
38962.1
1219.52
60695.3
23209.9
7792.26
37966.2
40535.5
51667
2983.06
67502.2
17844.6
16473.7
8698.98
58725.1
79706.1
11474.1
53406.7
63909.2
18082.6
23077.6
10594.7
33398.4
16201.8
19561.1
27370.3
30040.8
57934.2
56572.5
19462.8
51292.7
75385.6
25869.8
28932.9
45171.7
18987.2
65078.7
3261.96
4143.36
40094.1
1964.19
9551.2
4529.83
20808.8
24186.6
72090.9
25788.2
50913.9
5710.09
24609.5
2874.18
2108.87
36565.7
40232.6
9187.01
84204.4
16291.9
2894.99
31745.7
68756.1
3184.5
44541.9
2627.57
16690.7
69945.7
30409.4
16805.7
23359.7
32300.2
28677.4
2919.53
46974.5
1429.45
10915.8
2329.44
64435.1
26248.1
9133.08
41819.8
50539.5
13429.9
56130.4
4874.03
5348.66
76023.9
7714.44
5958.02
41142.1
2545.21
8374.11
20367
30035.2
3441.04
38481.5
17732
31201
24643.1
18606.1
66072.5
22778.8
30699.7
74959.3
10282.2
62344.8
42250
21459.8
63350.5
19803.8
31670.5
49960.5
2180.46
56989.6
32937.1
25377.6
11869.1
4138.01
47499.3
13543.2
25093.2
63948.1
19679.6
85192.4
32975.7
71333.9
40152.7
64289
19533.2
30539.1
53588.5
68753.2
17558.2
76027.8
34344.4
29798
37093.1
58937.6
16585.2
19357.7
26077.5
56147.1
3214.94
14389.2
53224.4
18103.7
35645.9
60903.3
28243.9
32801
58889
37741.3
9272.38
44001.2
21454.4
51057.2
54338.9
54291.9
12722.2
41194.9
4328.81
9322.7
76123.3
15733
58920.1
56529.6
55408.7
18305.9
3550.27
45014.6
53122
30624.4
63519.9
19509.2
5242.98
6929.65
4914.79
69534.1
53312.4
7860.39
11571.7
16674.7
20125.3
46719
82791.4
63297
5640.12
11806.2
23354.1
2220.15
22182.2
13313.4
8021.45
52878.4
2830.46
3554.22
8475.12
76054.8
7418.17
44618.6
39055.6
25371.9
33214.7
31635.3
3302.79
45622.7
23646.6
32927.3
65987
58937.2
39535.5
15143.1
31019.1
25372.9
63387.5
30384.9
7835.22
22075.8
15774.3
62481
28740.8
38143.3
10436.7
41689.8
46037
3250.68
50357.1
12858.6
13269.9
17092.2
19533.7
4185.81
16411
39711
21630.1
13924.5
13971.8
70954.4
19072.4
39082
3523.71
71839.3
9804.4
20062.2
34410
23579.6
19982.1
9887.93
16624.5
23042
72480.1
47517.5
25748.1
22787.5
32089.7
73296.6
35855.5
58935.1
14959.1
16463.4
2936.87
3949.64
40303.1
34251.8
36871.5
35489.5
5119.44
48200.8
25777.9
4332.4
64392
36057.4
16995.4
12328.8
34845.6
17285.2
32128
24328.8
15831.1
30771.1
43612.5
7950.21
59760.5
45952.5
73655.3
12645.2
50749
23243.2
29450.1
21118.9
59303.8
8571.15
21997
54372.7
8099.42
32056.7
25243.5
10156.7
10894.2
26711
10888.5
24292
53392.3
41978.6
23079.3
4110.01
57269.2
34955.6
28600.7
36145.5
24451.4
18827.5
61170.8
19677.5
30825.8
12277.4
30521.5
2805.26
18352.4
5950.33
8593.55
2831.26
37653
12194.3
20339.4
4780.21
32415.1
44608.7
27093.4
16018.2
8612.13
14285
25897.2
31256.8
72709.4
2930.23
26385.5
47524.6
56410.2
21625.8
9819.92
46332.8
35091.7
62660.2
19331.9
8960.17
10709.1
44393.2
79925.4
1659.23
69858.1
223.426
117.463
9093.45
55647.3
20445.9
22114.3
56768.6
22255.8
21767
46058.9
56516.2
4022.19
10381.7
18873.2
5033.56
23366.1
42836.6
24700.6
20293
5462.06
35329
2531.78
32725.4
34341.5
78145.2
56618.8
3279.76
12064.4
54015.4
10798.6
66702.2
4257.04
30588.6
31708.4
13812.6
29744
58400.5
57617.8
40465.2
12385.4
4082.04
44315.5
10124.8
40494.9
13549.1
63210.9
31285.6
10830.9
64438.5
4086.97
520.927
40910.1
29954
17606.1
24898.9
28864.1
44276
75821.8
33693.6
5301
58302.3
306.356
3353.44
3438.21
33450.1
31073
26692.9
4575.63
21613.5
13897
2276.81
28533.3
22575.2
30944.3
22043.7
28426.3
12379.7
35332.1
22228.7
74980.7
2703.42
77066.8
4861.13
19033.5
2789.69
10669.9
69058.7
2035.47
14693.2
9609.25
14224.5
58921.8
70932.4
3344.94
58503.7
10469.2
3649.2
7913.73
63338.8
18757.3
29687.5
28291.6
23965.8
40559.2
38304.8
57252.2
31300.7
37768.6
80789.5
31403.8
16524.3
8848.76
17003.8
22634.6
66300.9
17419
37334.9
57699.9
2582.62
18245.9
29785.9
53067.8
72093.6
2525.41
53792.2
30531.4
4322.68
42762.2
26376.8
12568.9
8376.12
14294.8
10519.1
19832.2
5442.54
11265.7
37942
38468
16600.5
4652.41
36639.5
34319.6
17555.7
36598.5
19816.9
10334
43627.3
15413.9
19445.1
29228.5
28203.1
59404.4
13641.3
11502.4
40755.9
31215.2
24205.8
13850
9636.61
52782.5
21300.3
13288
55916.4
5453.31
33250.2
61588.3
10199.7
70511.6
4667.69
55720.9
30879.9
18581.7
25656.8
68077.5
3093.31
9213.53
54725.8
42755.5
27187.1
36099.1
2197.2
2948.32
27298.9
10333.2
10219.4
18560.3
7999.25
8635.65
45277.4
9160.28
43568.8
58937.4
18612.8
54970.8
40450.6
56279.3
80439.8
6177.17
11850.2
7199.1
73775.8
8126.91
27423.4
4257.11
49733.7
29925
72831.6
13137.6
19663.6
24699.3
58868.4
3101.03
15905.1
94800.5
2892.57
2250.07
36409.5
7458.28
54831.3
7227.77
75183.4
49527.5
21656.3
55369.7
32102.2
9549.68
2135.59
75342.3
32127.1
40881.9
5558.53
57114.2
23322.4
12683.9
3328.55
16248.6
32682.4
9623.29
16553.8
7113.21
62030.4
2492.45
58729.5
12086.4
33307.6
2428.52
80990.9
2400.13
45926.5
51316.2
25444.2
11767.9
71858.5
19157.2
32553.4
21976.8
25546
28938
8225.38
10663.4
2324.65
34100.1
3338.02
22848.3
43255.1
56450.8
55960.9
31561.5
575.371
33173.8
42080.8
62111.7
40229.8
8818.11
21800.6
23695.5
40426.2
2179.44
26123.2
23412.8
22154.1
63911.2
15746.7
51767.9
2995.28
5228.08
27577.7
24335.9
2995.34
40240.5
11186.9
7489.91
13795.9
2686.33
15520.9
2671.14
32512
9789.21
33116.3
8119.37
31513.7
12309.7
19048
36969.7
7964.93
17477.5
29086.5
6044.04
23322.7
22210
31850
8686.9
31493.3
40590.4
33721.2
17243.7
40894.2
9161.7
29987.1
19577.3
17857.2
29167.4
3512.68
9223.74
13901.8
41129.1
8196.97
30254.2
17626.5
32095.1
12762
20172.9
37824
7937.75
30533.6
30177.1
44009.4
7934.31
65770.3
56211.1
37755.9
74956
67825
3163.69
14251.7
17365.2
4316.06
13510.6
4508.79
13415.3
11941.9
41989.2
10552
14405.3
41174.3
15916.9
36044.7
54745.6
2640.04
12957.5
56614.9
6768.18
13658.4
22825.8
17890.7
18132.4
45326.3
56886.3
12523.9
42920.1
4605.78
13698.8
9633.91
40003.7
17234.4
5499.59
9142.48
16554.9
9216.73
13835.3
3835.73
74855
48460.5
75135
50494.4
33825.6
9603.07
24753.6
46454.2
12402.3
29076.6
11623.4
58257.5
14443.9
19431.3
37088.9
21428.2
15530.6
5735.77
24861.4
18760.4
8901.93
3375.22
74225.8
77920.1
25376.6
13412.6
2399.59
50572.9
88306
66793.5
16017.3
75441.7
6291
11284.6
13469.9
8321.88
41177.5
35837.8
71214.5
14376.1
39949.6
50120.2
38252.5
6453.08
30684.9
51233.4
16068.4
6626.92
83951.8
69998.8
7206.82
9039.1
4520.14
28938.7
15906.3
30086.9
2571.39
2958.23
29788.2
3683.01
24577.1
21928
6650.56
19475.4
75192.9
24897.5
19727.9
6889.65
7086.6
14343.6
21845.4
73843
69109.1
11837.3
56704.4
12629.7
8123.25
8164.97
2971.89
4093.92
57420.5
13649.7
39928.6
13534.2
46244.9
29973.1
42299.4
41846.6
18752.3
58758.4
3028.73
6409.92
17931.6
9329.23
3111.62
57563.4
28901.1
1655.9
22911.7
16393.2
79260.3
29326.7
22306.1
4208.79
72104.1
38895
4426.42
9755.94
10431.7
39571
3277.04
79831.6
11112.1
54816.3
24011.8
34675.1
32011.1
48126.3
5142.75
60791.4
53257.3
36714.7
18150.6
44252.2
67342.3
44519.1
42152.2
50061.3
37455.8
46344.3
35599
13091.4
29479.7
67648.9
15655.6
5848.45
38067
32999.8
2937.92
4306.02
29975.3
68938.4
1764.64
12857.8
6062.67
33368.6
10923.2
13728.4
17827.3
14082.4
23559.1
3667.73
58933.4
12052.4
23533.2
14636.7
49937.8
23406.9
28725.5
2840.75
57435.4
46422.7
12308
43124.5
23362
1999.72
29603.8
24608.6
19499.6
7341.85
19283.4
6759.5
66527.1
9041.1
2492.85
11218.8
44629.4
11851.6
60309
24782
28695.9
23807.1
77668.6
42958
52865.1
28846.1
10284
44313.9
10711.2
371.858
15733.8
25686.9
4010.86
3260.17
22162.4
29323.2
43848.2
22002
15746
26183.3
4239.3
20753.4
44812.4
16365.1
13146.8
53345.3
40753.3
49445.7
3150.67
29250.1
61999.5
5260.01
9139.49
5442.75
58054
24113
27489.6
32205.4
67632.6
56606.9
13342.4
19923.1
995.76
2964.45
14660.6
5929.31
3183.84
19588.2
721.305
19516.5
18846.3
70297.2
23199
39499.1
12087.2
26647.2
60629.3
30560.8
27534.3
30824.5
10092.8
4688.75
7426.91
21968.2
63874.3
30217.4
30568.6
51316.7
11691.6
40752.8
73696.6
39736.8
8686.42
2875.64
21918.2
23249.1
4853.77
11734.6
6393.31
5287.23
9772.92
58933
49109
21884.2
40681
38907.5
25003.4
19301.9
13465.7
36378.2
55304.5
32151.9
13216.5
18845.9
4522.45
42689.6
3861.48
3014.94
53732.9
1603.34
51461.5
2995.15
13774.3
68760.8
57915.7
15474.6
26990.3
20749.5
30011.4
17705.1
13665.1
73815
26550.7
20825.5
18969.8
2619.01
2678.32
11213.6
4240.66
4856.21
34794.3
53555.4
27408.9
47824.6
20863.1
20244.9
39191
4747.83
45355
41546.9
58859.4
10746.9
29244.8
80506.6
52002.6
39194.8
24871.1
8550.92
15097.6
35410.3
4631.67
58619.4
10712
28573.6
5194.05
2534.23
3438.72
24053.6
29082
97027.6
31009.7
39634.7
13459.5
474.637
4009.76
19089.9
17737.7
4855.83
76175.8
36723.6
90632.2
43981.2
74147.8
23801.7
73079.2
20180.2
2707.33
22208.3
46517.8
66786.9
18533.4
57698.8
74349.6
37619.9
77363.7
71628.9
3991.05
12515.7
16408.4
20928.6
18608.3
2703.69
23421.6
61936.6
32181.9
24982.3
2596.77
40470.2
5862.67
9166.48
27863
2823.89
21290.1
46443.1
15892.2
23374.1
45490.2
71078.5
21156.1
19171.3
12627.2
29740.8
45488.1
17150.5
58309.5
8464.32
20042
5187.72
32932.7
4400.43
568.149
41062.9
4083.25
31722.4
1652.66
15358
10603.7
48483.5
12926.3
8505.45
4022.67
2468.65
11874.5
30328.3
24277.3
8130.14
33664.8
8764.6
41165
9590.86
75081.6
65852.7
27740.3
43885.7
32131.5
18780.7
1269.28
58849.6
7696.44
34051.6
68820.2
16198.3
18423.8
35421.9
57673.6
24978.8
26516.3
33254.9
54622.8
33661.4
24836.6
22934.8
61763.5
22830.6
3851.03
41207.9
35785.3
23715.2
22506.1
34451.1
15473.6
21874
25335.6
45204.3
19353.7
24531.2
23311.7
4124.06
5800.57
14863.2
19341.9
59125.2
19883
6823.19
23999
14353.9
66129.8
24383.3
25732.7
46746.1
19490
41339.3
3690.5
58098.1
17128.5
12896.7
39956.6
50728.3
13407.9
10652.2
55676.2
10006.3
66837.2
38879.7
13252.8
32128.2
24726.3
17573.4
58937.8
4511.24
10521.8
35801.4
41128.2
82477.9
90690.4
3474.73
2974.83
62422.5
19107.6
19926.5
77823.6
28369.4
21000.6
12257.3
26828.2
20570.4
2510.57
57123.9
23948.9
13422.5
5962.14
23611.7
6758.99
27994.2
9581.94
19280.9
58454.9
14383.6
5734.87
54822.9
43882.4
18367.8
58654.1
27953.5
17305.8
28149.6
33240.5
20009
12887.7
81533.7
17579.6
15630.3
12869.7
14778.5
43081.2
65282.1
29727.8
4120.49
1350.41
23051.9
34998.2
23856.2
58935.8
18251.2
17829.7
46226.7
30371.2
13066.7
22655.8
42205.6
11754.7
74577.8
8252.67
16447.9
56654.5
29335.6
34753.4
43338.5
37389.3
12495.2
60768.9
37453
8872.94
35822.7
65451.1
32980.9
23880
66626.3
50516.5
21768.5
48718.1
9130.39
20448.4
74988.8
1480.72
44970.2
55589.3
60900.1
27072.9
11419.7
8568.66
83540.5
8006.06
75202.8
8314.27
24470.6
22780.4
21508.2
6655.72
31418.2
24780.2
7360.2
54271.2
30754.6
20853.9
68954.5
3181.29
13075.1
34589.1
23619
33046.3
70643.1
21843.2
67751.8
4166.92
32321.2
10600.6
57602.7
56151.1
61071.8
15008.3
54344.2
22511.6
25752.2
10743.9
27929.1
4793.56
11045.2
22529.4
23535.6
25057.1
3007.32
40153.4
30313.7
8286.39
16380.2
42946.9
22380.3
3183.42
9502.17
14846.8
40519
54541.8
55876
3604.36
3669.01
5947.96
74030.5
70007.1
7152.89
16899.2
6337.61
55807.9
3235.04
7346.79
7464.81
4692.49
52840.1
47825.5
9753.81
37431.1
16753.6
24928.8
12519.1
18176.4
73992.8
38849.4
46770.6
13576.3
22423.7
6290.28
20745.2
11747.6
2844.15
60919.1
14916.1
7863.13
34015.7
2267.02
23778.9
8284.06
41626.4
29615.5
11099
5897.95
13986.6
30295.2
23821.8
26171.7
33838
37286.5
57877.5
58934.5
10604.5
4944.92
25905.6
26396.4
12743
10657.9
25175.2
22669.7
17391.3
21902.2
5079.9
2859.05
24383
19243.2
16699.2
72241.7
32694.6
40035.7
28784.8
1663.12
4057.31
11899.3
47488.7
19075.5
45163.9
21829.3
24492.2
12468.7
32405
54276.9
7311.07
57089.4
12338.6
16247.3
75387.1
55102.5
57089.4
85786.4
39215.1
15570.9
58943.1
22153
66320.1
34746.2
5715.78
30798.9
34675.2
30782
1538.83
30794.7
59801.5
13844.8
55955.9
10739.5
66788
36306.8
41719.5
1924.63
33889.1
71337.5
22079.2
10024.4
31648.8
18078.7
7716.46
2125.38
10423.6
74870.4
20255.5
55365.4
61103.4
29367
13660.9
23080.1
74687.7
16291.1
44272.4
19952
46232.8
28578.1
30081.4
46040.7
27845.1
11275.4
9993.14
37867
30860.1
67911.2
68494.6
7524.37
17233.8
39700.6
4877.75
2802.89
18020.5
53595.4
16392.7
2717.23
59147.9
8736.79
35339.9
39510.3
66526.5
75882.4
22017.6
3357.21
2007.11
51349
37758.4
8974.71
19462
44085.1
12258.1
21979.2
20385.2
2580.31
22496.4
15375.2
3898.98
20928.2
13885.5
39583.5
10801
2359.57
1882.24
2391.57
2287.2
2242.03
4269.89
1648.27
1981.86
1793.16
45756.6
72720
8467.04
2774.4
56417.1
4142.47
58932.5
6892.51
3086.51
35764.1
6234.94
33718.2
3725.47
43626.8
4732.82
49140.8
49586.9
1681.3
10102.7
16652.7
40794.2
37421.7
45849.6
74941.7
30867.6
34091.8
4076.92
33836
15744.6
19779
51979
64023.4
22741.5
10683
12294.4
9558.22
5366.15
2733.88
9353.33
28262
9157.94
3033.54
18969.2
25129.4
54453.5
26049.9
39006.3
13489.4
8190.26
52856.2
68600.5
31096.3
4517.92
72611.2
2461.96
31273.8
22993.3
7931.1
13170.6
7722.73
6589.45
37995.9
15748.7
47273.7
31718.7
28009.6
17010.5
3067.29
16010.1
6594.66
59805.2
46450.8
41547.9
61927.1
10360.4
13623.1
61503.6
49075.6
7771.04
66588.8
31171.6
23429
43388.9
30569.5
25901.3
17437.3
5940.08
39571.2
17886.1
31636.2
41992.8
12220.8
16494.5
71910.1
3510.2
4195.6
30814.6
56480.7
71936.5
15774.9
40234.1
58941.3
11250.5
76341.9
17815.5
13564.8
38347.9
4375.91
38781.8
40097
48338.8
55732.4
28005.6
12101
10115.4
8790.63
132.103
30112.3
45218.6
6971.65
4510.43
10556.1
17389.9
40316.8
68831.2
84686.7
13674
26624.6
6349.26
37853.1
20169.6
61125.5
40005.4
15502.1
39418.9
46769
56956.8
39368.1
33058
5160.1
25720.6
14490.6
3061.38
27936.2
81793.5
10299.3
48611.2
58919.4
9925.64
16025.6
17679.2
70470
10178
4636.1
26315.5
8269.29
64319
26901.7
38684.4
33564.4
25735.3
23451.5
39249.3
22113.7
45459.3
27259.9
5722.02
41287.2
94002.2
31524.4
8398.95
33826.1
55379.8
45363.3
38232.2
12617.8
33665.7
12353.5
11157.3
27417
27093.9
22849.6
19698.5
75761
73053.8
22276.3
41044.9
66558.8
5769.02
42474.9
185.54
27045.9
3012.94
37334.7
48386.2
58565.3
55128
75077.1
16435.2
55067.5
12367.3
58945.3
42671
42220.2
24938.7
41046
14287.8
26543.9
13349.3
70964.2
2172.49
5259.96
5949.79
10801.7
55286.6
90209.8
5005.55
5697.41
35625.7
32583.7
4087.1
23219.5
17679.6
16837.5
48365.8
9435.06
52376.2
42811.8
69583.6
13996
55893.9
61130.7
36965
35263
42021
26759.9
58543.5
11596
74069.7
19567.1
52510.4
41603.8
62361.2
38527.3
4141.28
5253.84
7700.92
23327
18092.7
3233.67
2588.17
35038.6
30021.1
15054.3
23241.5
42301.2
10508.4
74537.5
38294.8
56581.8
25970.2
30317.2
81709.7
7276.01
11582.9
56250.6
29447.2
13971.8
6024.31
25955.5
3458.74
5364.79
19189.5
35967.7
7373.15
18869.6
58911.2
3064.27
19500.1
10579.2
24692.8
20306.4
75195.7
80820.5
35824.9
6943.39
38512.3
37209.9
20472.2
36164.9
6745.79
66760.5
31698.7
71719
12623.3
34505.4
8531.98
3329.24
22138.5
31074.3
42438.5
18956.2
36551.1
36969.9
39137.5
20695.6
38590.9
3394.37
32695.7
53489.8
20109.5
54715.3
34687.9
23056.3
17228.6
25905.4
31462.7
11791.6
6469.32
3664.87
24614.7
9721.55
37702.2
51161.3
7118.7
90423.4
3067.35
6363.81
17073.5
40863.3
7101.79
30828.6
35428.3
3447.76
3302.72
45517.9
5742.95
4430.2
15547.3
9300.78
9215.53
31075.8
53178.1
42253.3
24035.9
30107.2
24797.2
41453.4
77202.3
25841.1
30189.7
11948.2
48093.9
26098.6
35488.3
2393.75
28155
5507.1
5208.98
19406.5
75975.8
37058.1
23299.3
53675.7
8737.58
19688.2
1870.91
13293.8
9964.43
20246.9
3741.45
14261.1
9907.99
3305.05
59815
1778.86
19282.5
22579.3
52095.1
2664.16
16011.9
13263.2
59883.6
10531.7
39669.8
57450.6
52649.8
75988.1
2979.45
64985.4
36888.5
4024.53
6771.95
12183.5
2526.11
13316.2
2518.67
40432.6
23577.8
26402.1
15546.1
12104.1
19718.1
31094.9
37770.4
54207.9
26870.7
17071.3
2883.66
14964.7
11977.9
76816
14039.4
25194.7
35109
23688.3
2920.7
76903.1
3275.11
5166.77
31109.6
15569.8
11898.1
33258.6
25712.1
17705.1
5767.89
5350.13
38591.5
3005.87
42050.2
12270.7
50404.5
2938.39
69174
31958.4
15280.4
24373.4
41580.5
1510.65
25285.3
2844.55
16578.6
6586.3
34485.6
26346.4
17184.7
9252.85
19933.3
14320.2
37631.4
70588.6
27731.3
6262.15
20105.5
70298.9
32408.9
23873.6
21337
40559.2
17650
6953.44
36459.6
15663.1
49792.6
15606.8
26065.6
2779.61
32488.6
3371.94
10094.9
11815.2
60795
51217.1
16815.4
42393.6
12444.9
36748.4
13002.1
83283.5
4782.75
16809.2
15631.3
38584
82500.2
10471
58742.3
70420.7
37664.3
32963.7
3937.84
3417.46
12322.2
5910.66
40776.4
40863.4
12531.2
51731.3
50375.9
4081.6
37434.8
33810.9
24374.7
18357.3
22553
15326
32551.3
34894.2
24049.2
5082.66
13111
17458.2
68946.5
16432.2
21770.1
10423.9
24732.9
34645.9
30587.2
17449.9
27761.8
5182.89
370.384
71091.9
3145.25
235.748
5377.78
11942.4
9914.74
48889.7
70859.4
38885.4
27901.9
12519.9
58743.4
3547.04
16501
71277.4
59804.5
16383.8
3767.6
74426.5
17075.3
2760.11
26413.2
27421.9
23607
61721.9
25901.2
21090.5
40454.2
3031.71
39550.7
14283.9
3380.67
2931.48
2715.57
15040.9
29297
19903.2
50373.8
7066.89
5935.38
21807.6
13645.9
3456.68
66603
64895.3
66413.6
24900.7
41932.7
4984.66
3177.39
25911.7
26618.2
22856.7
3601.41
2618.54
39316.5
66775.5
63305.5
19855
27693.6
78043.8
45213.6
11587.5
23305.7
3680.6
18960.2
36474.2
29543.3
26253.6
39521.1
37513.5
36591
1837.71
3186.35
4004.62
22977.4
12980.2
22206.4
22574.5
2736.09
10729.8
32643.9
21239.6
1892.27
36496.9
30110.7
44969.7
9036.58
16983.5
19273.2
4772.52
16801.9
41778.1
3985.15
24622.6
2513.44
43442.4
934.589
28812.8
85939.4
3219.5
26342.2
31281.5
30537.8
5106.83
10020.7
3703.42
45214.5
29058.4
12955.2
22111.7
30627.4
1434.91
48463.5
21713.4
33977
16103.8
10770.2
37172.1
26234.2
5246.04
2718
38130.3
8358.71
12463.1
4320.99
3642.49
23035.4
31053.1
39260.7
11764
33239.9
37529.3
8153.94
5384.25
12661.1
26094
61115.5
23527.1
48456
73723.7
7920.79
20989.5
43476.8
32550.2
24563.2
29496.3
8459.94
11360.1
27465.6
9806.23
14945.2
27277.5
35720.1
26547.9
45286.6
19593.5
2454.39
23688.2
35288.5
4771.58
21743.3
37524.3
6866.4
71358.2
19439.2
21511
72524.3
29530.6
29942.3
14756.9
6523.13
76400.8
74452.9
39403
7151.91
32477.5
2700.8
37621.6
8618.04
6316.67
4836.71
4803.51
65720.5
31523.6
32078.8
34014.2
54639.8
25907.8
46267
61295.9
68572
70555.4
58554.2
48082.4
3856.08
3660.21
18563.6
29618.6
13154.1
1025.45
67134.4
18123.5
63762.1
20949.9
38561.9
22229.4
7675.64
17517.4
2580.28
26492.4
15459.5
23219
45780.2
48538.2
25001.3
2876.84
25178.1
2999.72
58201.3
19840.6
2227.78
10553.9
41640.2
25249.2
10495.5
2584.08
2472.57
52064.6
60152.9
17789.9
32257
18247.7
14225
3980.9
9481.53
31937.2
30860.2
22847.9
49867.1
37962.2
24071.9
45158.7
13491.7
69801.8
68608.8
21931.2
48390.8
15652.5
35508.5
3736.57
8730.98
58865.4
11973.8
27329.7
16356.7
15138.5
4509.2
11364.5
65592.8
19515.3
30713.6
23721.3
58471.6
8122.83
32550.7
20103.7
19443.7
69405.6
2544.83
68803.5
86897
66081.5
6568.89
33404.4
4968.73
25623.7
13469.6
27205.7
20352.6
22022.6
11999.9
40216.2
4245.57
46913.5
84394.3
25590.4
18637.2
34349.6
20334.8
16888.5
5808.74
56525.8
3206.78
12665
8102.34
20733
4418.86
5806.91
21061.8
2110.37
52007.6
4596.24
43143.1
4333.41
3111.99
15711.5
24182.5
159.794
18822.8
25805
13446.5
22822.1
2684.53
13913.5
11123.2
15836.2
29372.4
79510.6
20389.3
34510.2
11983.9
81635.2
6986.88
38159.4
63110.5
52191.6
4193.55
8862.76
6439.1
33318.8
11724.5
72806.7
5102.96
14071.3
9966.79
9210.34
33668.7
18223.6
64331
27260
24245.6
5037.02
38887.8
55215.9
36814.5
4850.8
33769.1
26814.6
8979.9
67436.4
45670.7
35591.4
26300.5
38484.2
92923
5041.65
31684.1
6556.26
114.909
8772.48
42885.7
10907.2
10236.5
26356.1
24949.8
23638.7
42986.2
61574.5
23512.3
58931.2
3112.02
22090.8
30053.7
5427.65
23884.4
7241.93
94976.1
9924.92
14992.8
24750.3
46867.5
8280.93
17806.1
2714.45
55851.9
4519.68
65823.4
30676.2
19196.4
7313.93
32295.8
9554.25
44493.9
36510.7
384.351
21408
38813.4
16859.9
12803.9
14863.9
17449.6
14981.6
6373.36
72055.8
2652.28
24617.8
34318.2
51070.6
4374.21
50865
21085.9
1990.77
2782.48
2957.07
37132.5
93828.9
60794.7
12922.6
53766.3
7278.2
26043.4
29774.3
7235.43
52014.1
58587.1
9784.14
2667.19
30808
30592.5
58941.2
3043.1
39096.6
26526.5
36551.8
35317.9
31832.6
13436.4
7524.24
73457.4
30100.4
6503.96
32969.5
14726
9286.66
12755.2
10211.5
16443.7
29228.2
24933.9
9247.87
12923
40922.6
79657.2
33150.2
50958.8
4761.85
34674.1
12585.3
6829.78
24878.5
6316.6
33110.4
10317.2
66885.4
30421
18403.5
17759.3
18354.1
46218.5
2939.9
23467.6
71075.3
8563.74
16948.5
55393.3
52696.7
72523
10851.5
15362.4
39669.7
30436.1
19728.6
44218.7
22410.8
14352.1
40305.9
59767.1
26796.6
15507
39471.2
29739.6
45606.3
16055.9
50756.4
11591.1
4257.94
44874.8
66429.3
22193.8
9140.09
16119.5
37498.9
10995.3
21362.4
2249.64
38459.7
26213
17311.6
69994.2
10687.4
26611.3
50812
8375.52
11766.2
35608.1
11793.2
18377.4
54171.9
44218.9
25897.7
57090.9
23142.4
62876.1
52746.9
48151
2295.83
37972
30612.3
61061.7
23020.7
71627.4
5375.74
6742.38
3222.85
88375.6
4219.05
62049
9685.89
13737.5
3099.66
13685
48117.3
11140.3
4008.79
4159.97
11706.3
34263.3
4890.63
38797.2
22481.6
47389.2
11974.5
3156.78
66183.9
19834.3
26503.3
29525.2
38310.4
2826.12
5658.94
31637.1
2188.99
17157.5
26647.4
45146.5
41631.2
33030.3
19538.5
2444.7
5936.62
39974.9
15922
2837.43
73517.3
11087.4
34571.4
2867.94
36206.7
19511.7
43325.7
11649.1
3354.75
10912.6
21951.6
40874.6
19590.7
37325
29381.6
17966
37686.7
8220.05
2414.46
24336.7
11258.1
22916.4
91926.3
50306.9
23622.9
45823.2
78508
5467.05
17130
26403.1
17507.7
49404.8
47083.9
40100.2
40094.7
8465.04
37536.5
15757
2458.68
2545.4
27013.2
9298.79
8365.65
42408.6
68493.9
35189.4
35560.5
27882.1
20887.7
43837.9
28024.8
61119.1
25673.4
75436.8
6012.36
2737.59
36155.7
36440.7
8691.88
23949.5
27720.9
43359.7
28672.3
17284.7
34865.7
24423.6
10534
19616.2
43325.4
13632.1
37654.4
2998.42
3672.12
23586.6
6922.76
23900.9
43390.1
29147.8
72937.1
24079.5
16429.4
26605.8
53992.5
13301.5
31737.6
69753.5
15636.8
21804.6
3833.72
12881.9
27926.1
25637.8
3984.97
48359.6
35158.3
49112
25584.6
7811.21
9125.2
58830.6
57545.9
38119.8
5440.23
9721.94
21868.8
11469.5
76115.6
25468.6
36998.1
22742.6
3153.91
36183.9
24114.7
30417.5
29487.3
23514.8
52617.3
22090
10275.2
20260.6
42193.8
61778.1
40513.4
24045.9
83989.8
25482.1
70803
53146.5
37144.8
2293.82
25114.9
6843.06
54606
72897
38027.3
25880.5
7034.63
15215.1
39474.5
62451.8
13062.6
65232.6
37258.1
35079.3
41425
11966
49709.9
6037.73
46085.7
85110.2
8684.57
1422.23
36869.1
55522.9
7434.23
21725.1
14324
48971
40300.5
2552.7
9034.05
2757.55
29201.2
57382.5
72054.1
11757.7
32722.5
71185.5
36727
69854.6
28016.7
31290.2
18766.5
42262.3
28465.1
12533.1
9077.35
31504.7
66624.6
10455.3
44916.9
7169.41
25338.3
66963.6
3746.39
11858.9
73687.1
36705.8
39119.4
17141.2
15938.8
8565.84
33088.8
10193.1
66136.5
6543.23
22021
36814.2
13658.4
70834.1
49006.3
28962.2
12105.3
33703.8
28586.2
29657.4
45717.6
13167.1
30204
28808
58648.5
66730
16018.5
10008.2
68273.8
12456.4
31272.8
3719.13
12230.9
39770
71351.1
45355.9
15040.9
72467.3
15964.5
32811.3
2292.14
51341
79150.1
12503
28963.3
14656.4
19407.2
57107.7
58150
5360.98
47964.4
68240
8164.55
27420.5
45512.2
23176.3
46535.8
22107.9
33035.1
1874.21
1558.88
2270.06
2439.7
1759.99
2881.07
2186.79
2574.25
1746.31
21028.6
5048.96
67068.1
27487.8
3855.09
75482.3
20798.9
50487.9
20666.1
45177.8
69374.4
36840.7
25344.7
33018.7
6760.29
77053.2
3854.65
23808.1
38277.3
61500.1
51941.1
11055.7
29481.5
30181.2
46666.4
58990.5
29872.8
70037.8
25485.9
30155.6
37895.3
2659.06
6949.61
69518.5
38057.4
4895.08
39024.2
2597.86
3855.18
3539.45
3132.86
2639.36
31317.2
35104.1
65844.1
33527.5
30467.2
51019.3
30186.6
2715.55
20166.8
34708.1
63819.7
2110.29
2760.57
59981.1
58691.1
3160.2
16989.4
73356.6
8434.73
66403.8
19304.1
24912.9
2800.73
45646.8
26588.8
6713.11
11233.3
11180.8
41493.6
34023.3
2606.71
5173.47
35111.1
54536
37399.3
23242.3
23228.8
32820.8
31545.2
22749.8
34762.6
7157.89
43282.9
56634.8
20451.6
35009.7
34872.7
37883.5
32430.5
2865.03
39098.6
21031.2
13771.5
35761.3
27732.7
28696.1
45326.7
21020.3
65226.8
26937.2
75652.6
16349
64194.9
31670.2
59513.5
23044.1
75377.7
2533.08
10655.1
18150.8
69834.2
9942.69
76236.9
5585.69
2755.92
47146.6
54421.7
53476.3
15079.7
26125.8
3222.25
21228.1
30231.1
3598.55
88711.5
27854
34182.8
23801
79090
5863.6
19827.9
22851.7
6072.85
19440.8
37075.8
74709.7
42454.7
11040.3
67240.3
29248.3
22814.9
61087.3
33902.1
46127.1
2840.48
9168.28
29991.8
20257
47423.9
22641.6
54405.8
32775.2
34666.4
64152.6
23054.1
1908.32
4998.5
3556.62
22917.6
31560.3
28215
73711.6
25472.9
64344.5
26256.3
24723.2
61344.7
16148.6
24597.6
62197.2
38146.5
56642.3
74896.7
26588
13613.1
36580.7
22670.2
12333.7
7290.47
23322.5
34862
16478.9
39145.7
44978.9
71523
29423.8
66666.7
41468.6
25240.3
41865.2
25092.5
33737.4
29885.5
20322.9
2885.86
82578.8
24313.9
44660.5
36260.3
6844.76
15144.2
16870.8
9418.94
35820.1
40901.9
21228.5
59860.5
73097.1
32582.2
28897.2
3560.98
27803.6
69819
7432.14
10847.9
16026.8
16941.1
77012.9
16814.8
4120.17
25564.1
11086.4
27107.7
66249.9
7421.75
79424.5
6002.05
31083.3
21035.4
62739
29996.5
39802.9
36278.7
45627.6
41433.7
34206.4
22710
21053.3
73439.8
27618.5
3092.56
32102.8
15168.6
71880.4
65837.6
47291.3
77872.2
9931.45
35966.4
18478.5
11576.6
14372.4
5868.63
62257.4
37966.5
3656.64
32645.4
23638.1
22719.5
83906
50924.3
34350.5
5635.79
4755.3
3932.02
8016.14
5361.21
2179.86
35922.6
6137.44
67031.3
76765.9
51804.2
36439.1
70961.1
28640.4
46543.9
30623.8
28091.2
60137.4
8222.46
25938.1
41353
66993.9
6513.24
58265.2
4357.9
40513.1
6660.21
23656.7
51606
7383.07
42882.7
49496.9
13383.5
4807.64
51477.6
61289.4
12770.7
61222.5
46795.1
41931.1
24241.1
23935.1
36825.9
42676.5
67660
19713.8
39397.7
8928.37
27738.7
48364.3
22615.6
63970
34007.8
14316.6
39293.5
3413.65
29297.8
18659.6
15749.4
9170.76
5520.75
31371.5
19734.7
26029
8682.31
7774.89
68719.6
70416.3
30620.1
68755.7
72650.5
43202.5
13457
46026.4
21770
21942.1
12686.3
55812.8
61990.3
57636
14061.1
3197.16
8147.51
29201.1
71154.9
6776.32
66778.8
2482.3
58138.4
35438.9
5092.53
5514.91
21361.8
9326.06
77391
46500.9
75484.8
28789.2
47556.5
23619.8
32900.9
42139.6
64300.4
17735.9
4696.9
36632.1
4021.06
18491.4
19411.1
31982.4
44313.2
72076.1
58905.1
61362.5
19252.7
3766.9
14324.5
72301.5
65726.2
12690.3
23291.7
16312.6
37318
40962.5
14555
16193.4
25772.8
72374.5
41267.5
35930.3
11076
34454.9
76033
6234.62
33255.9
29867.4
41008
37092.4
47393.9
62131.1
9119.55
9202.2
60390.6
35473.8
7497.62
73548.9
76006.4
6362.87
25886.1
30058.4
58890.5
12485.2
24374.5
74695.6
28928.8
87263.6
14277.4
17020.6
27602.8
28246.7
3383.99
40763.7
38109.3
12322.5
4367.84
56360.7
26017.6
14072.9
25079.6
27635.8
11941.8
3348.17
15400.1
8234.84
38697.6
30972.4
2923.43
50374.3
17680.2
33276.5
22741.9
66945.6
25392.9
5634.03
25801.6
34214
22621.4
72843.9
6146.13
9439.89
47325.7
42271.9
27729.9
35133.2
41933.4
75591.9
44831.8
16291
66151.8
17589.9
33576.4
11347.2
12247.1
12742.3
56925.7
73899.2
29773.2
27928.7
13314.9
48560.1
66395.1
75087.8
6051.61
58938
6873.98
41637.6
36269.3
10382.6
82623.2
74172.2
54712.1
3001.77
1698.61
1507.02
2126.95
1175.11