/*--------------------------------*- C++ -*----------------------------------*\
| =========                 |                                                 |
| \\      /  F ield         | OpenFOAM: The Open Source CFD Toolbox           |
|  \\    /   O peration     | Version:  dev                                   |
|   \\  /    A nd           | Web:      www.OpenFOAM.org                      |
|    \\/     M anipulation  |                                                 |
|*---------------------------------------------------------------------------*|
|* OpenFOAM for Windows 18.02 (v1)                                           *|
|* Built by CFD Support, www.cfdsupport.com (based on Symscape).             *|
\*---------------------------------------------------------------------------*/
FoamFile
{
    version     2.0;
    format      ascii;
    class       volScalarField;
    location    "2e-005";
    object      nut;
}
// * * * * * * * * * * * * * * * * * * * * * * * * * * * * * * * * * * * * * //

dimensions      [0 2 -1 0 0 0 0];

internalField   nonuniform List<scalar> 
23640
(
0.00315878
0.0041995
0.000237344
0.0250771
0.0052821
0.00312633
0.00476841
0.00403079
0.00676794
0.000841534
0.00902892
0.0059962
0.00607383
0.00511297
0.00154632
0.00268618
0.00301019
0.00540793
0.00955025
0.00622325
0.00629133
6.49566e-005
0.00668014
0.00109478
0.00511541
0.00512794
0.0097918
0.00767399
0.00280599
0.0045872
0.00508649
0.232918
0.00590332
0.00633156
0.00391724
0.00117213
0.00313421
0.00233369
0.000546473
0.00109884
0.00568189
0.00691932
0.00546863
0.000828725
0.05083
0.0061777
0.00343199
0.00491469
0.000855406
0.0039394
1.03432
0.00905203
0.000958696
0.0030861
0.0264742
0.000147867
0.00369203
0.0051253
0.00377335
0.0230511
0.00485469
0.00832628
0.00942688
0.00964993
0.00396617
0.00946086
0.00297326
0.00537821
0.000985492
0.00562777
0.000987662
0.00628391
0.00460521
0.00308424
0.00348971
0.0650076
4.48234e-006
0.00588769
0.00950378
0.00983271
0.00612577
0.00405495
0.00398873
0.00400861
0.00396636
0.000349012
0.00878684
8.06514e-005
0.00122227
0.00166524
0.00429175
0.00548945
0.00244157
0.00618418
0.0106222
0.00728207
0.00978292
0.000276427
0.00503163
0.00186503
0.00245371
0.00297573
0.000574778
0.00263418
0.00370053
0.00211927
0.00288737
0.00301729
0.00645192
0.00564436
0.00358645
0.00488416
0.00645311
0.00568985
0.000660582
0.00147646
0.00138874
0.00315059
0.00315341
0.00496318
0.000250176
0.223373
0.000271232
0.256682
0.00791487
0.00064596
1.34418
0.00227395
0.00316375
0.00589534
0.00839526
0.00386411
0.00609744
0.00873963
0.00250103
6.29546e-005
0.00680117
0.0052377
0.00912309
0.00960157
0.00530899
0.00366512
0.00425934
0.00924274
0.00227986
0.0054677
0.00798535
0.00216746
0.00438769
0.000883438
0.00385513
0.00405717
0.00405069
0.0164551
0.00681809
0.00157147
0.00476106
0.00704227
0.00363509
0.00983127
0.00160136
0.000765663
0.00117199
0.00296183
0.00164621
0.00133541
0.00161258
0.00377254
0.00375283
0.00378739
0.00486325
0.000691315
0.00347157
0.00629641
0.00637012
0.00524192
0.00573524
0.000929367
0.00985199
0.00470832
0.0508736
5.50301e-005
0.00528847
0.00772227
0.00288134
0.00823061
0.0087382
0.00264591
0.0152828
0.00813436
0.00622787
0.00764918
0.167571
0.00406704
0.00287515
0.000601656
0.00376291
0.00283991
3.78886e-005
0.00574714
0.00949787
0.00131135
0.00279585
0.00701682
0.00844061
0.00398979
3.02086e-005
0.00630487
0.00113559
0.00226842
0.00510015
0.00547133
0.00397276
0.00395378
0.00411986
0.00544266
0.0049499
0.00625449
0.00364417
0.00118972
0.00397778
0.00830452
0.00943804
0.00593307
0.00136544
0.00637557
0.00574811
0.231422
0.00102243
0.00427409
0.00331475
0.00279259
0.00629851
0.00563544
0.00694442
0.00425799
0.00109924
0.00543122
0.00436111
0.00375495
0.00260291
0.000206278
0.00575329
0.00681487
0.0230378
0.00311277
0.00381325
0.00022729
0.0131758
0.000828793
0.0269866
0.00513588
0.00351103
0.00601783
0.00380343
0.00114979
0.000354261
0.00292469
0.00619107
0.00438703
0.0361807
0.00363856
0.0031689
0.00631323
0.0025816
0.00527556
0.00897543
0.00464393
0.00383166
0.00884504
0.00177544
0.00211191
0.000206097
0.0178984
0.00191986
0.00642885
0.0028416
0.216773
0.0107341
0.00626661
0.00056951
0.00255684
0.00773197
0.00959704
0.00439918
0.00769437
0.00411088
0.00197031
0.00499849
0.00959619
0.00768692
0.00257706
0.00553895
0.00348723
0.00908462
0.00513786
0.00576132
0.00316068
0.00536851
0.00307743
0.00377606
0.00963638
0.258707
0.00552729
0.00672096
0.00207633
0.00423001
0.00674592
0.0320407
0.00381358
0.00267049
0.00261867
0.00653634
0.00804129
0.00916306
0.00892142
0.00267544
0.000288512
0.0106357
0.00364883
0.0035424
0.00645826
0.00386243
0.00760372
0.00248787
0.00255786
0.000618916
0.00469856
0.00342409
0.64398
0.00704184
0.00410796
0.00785894
0.00872297
0.0063342
0.00566372
4.16547e-005
0.00199588
0.00504682
0.00533953
0.000189864
0.00319474
0.00682609
0.19801
0.00506691
0.0053678
0.0080405
0.00580902
0.00633318
0.00656492
0.00444375
0.00245069
0.00299351
0.00295735
0.00388918
0.00163568
0.00348419
0.00306833
0.00859006
0.00847722
0.00872825
0.00793257
0.00944157
0.00294606
0.0055086
0.00201936
0.00167604
0.00155806
0.00979345
0.00508777
0.00221782
0.000430597
0.00265494
0.00914437
0.00796983
0.00293986
0.0178389
0.000886678
0.00471433
0.00923871
0.00517003
0.000464133
0.0053057
0.00374999
0.00592395
0.00208601
0.00174438
0.00123323
0.000767041
0.00190789
0.00930838
0.00275076
1.62735e-005
0.00100255
0.00360361
0.00134386
0.193819
0.0029917
0.00362948
0.00726615
0.00189625
0.000125775
0.00352963
0.00215073
0.00581351
0.00561396
0.014825
0.00276824
0.00136692
0.00359408
0.00278652
0.0130025
0.00534149
0.00723116
0.00838766
0.00593724
0.00758714
0.00690028
0.00578006
0.00649353
0.00649705
0.00903145
0.00530687
0.00281174
0.000966524
0.00177902
0.213733
0.000370243
0.00778264
0.00354403
0.0025361
0.0605476
0.00218083
0.00618054
0.00907394
0.00529135
0.00242675
0.00106004
0.00266051
0.0114161
0.00871047
0.00721105
0.000567893
0.00125702
0.00918807
0.00361832
0.00754639
0.00163239
0.00938137
0.00156958
146.988
0.00296836
0.00668631
0.00274153
0.00388328
0.00236446
0.00480582
0.00414927
0.00352312
0.00116911
0.00571585
0.00441013
0.00640269
15.6475
0.00128389
0.00502229
0.00148406
5.61081e-005
0.0023647
0.00622136
0.00838104
0.00655973
0.0389446
0.00202515
0.00316726
0.00756792
0.00541536
4.27987
0.00262049
0.0433558
0.00401565
0.00197792
0.00779508
0.0012694
0.00157414
0.000992194
0.00330571
0.00184795
0.00524888
0.00332188
0.00929823
0.0262485
0.0055163
0.000780682
0.00485389
0.00557174
0.00249851
0.00649374
0.0008582
0.00329128
0.00704751
0.0106944
0.00182141
0.00566957
0.00729657
0.00378534
0.00373788
0.00260156
0.00261445
0.00575067
0.00676827
0.0034342
0.000923316
0.000467831
0.00605318
0.00689157
0.00633104
0.00278127
0.00674703
0.00936532
0.00285444
0.00895874
237.988
0.00124976
0.00494396
0.00650659
0.00541625
0.00616162
0.00530774
0.0037886
0.00567542
0.00153691
0.00323208
0.00350769
0.000249783
0.00692906
0.000968033
0.00311164
0.00304502
0.00583351
0.00302391
0.00728869
0.0047887
0.00528741
0.00341039
0.0052465
0.00138827
0.0020278
0.00569181
0.00565943
0.00307525
0.00566291
0.000195298
0.0011335
0.00267588
0.00574695
0.0062282
0.000172569
0.00715483
0.00745841
0.00336067
0.00334058
0.00575501
0.00569537
0.00946297
0.00656934
0.00358206
0.00824392
0.00120926
0.000965258
97.3511
0.00526005
0.00482008
0.0017637
0.00278043
0.00972586
0.000383554
0.000366044
0.00274048
0.00355786
0.0656609
0.00831507
0.00294282
0.00608675
0.00807337
0.00112436
0.00372914
0.00271647
0.00508696
0.00838255
0.0126922
0.00546056
0.0057822
0.00670541
0.00377903
0.0105615
0.00626652
0.00844797
0.0064026
0.00225831
0.00870334
0.00938312
0.00567146
0.00279049
0.00465882
0.000187585
0.00333314
0.00346277
0.00677716
0.00523788
0.00501037
0.00387594
0.00589011
0.00529402
0.00300517
0.00341687
0.000368689
0.00533196
0.0033396
0.217646
0.00859822
0.00583313
0.00663405
0.0128877
0.0055162
0.0100616
0.00517195
0.00898077
0.00700497
0.000591407
0.00217699
0.00399512
0.00127695
0.00475529
0.00138193
0.0308265
0.00730959
0.00524846
0.00294956
0.00106508
0.00674192
0.000254131
0.00301399
0.00608145
5.61901e-005
0.00826331
0.00899789
0.00808635
0.00204053
0.00591002
0.00203322
0.17524
0.00175676
0.00416024
0.00624963
0.00813169
0.000870817
0.00329189
0.00583167
0.00349867
0.00776415
0.00584754
0.00139325
0.00242591
3.07408e-006
7.55209e-007
0.00352803
0.133568
0.00174885
0.00357842
0.222213
0.00488722
0.00577785
0.00205339
0.0107039
0.00323605
0.00691779
0.00604142
0.00338162
0.0107972
0.0253903
0.00860865
0.00624779
0.0011799
0.006902
0.00209431
0.0198181
0.0053615
0.00563047
0.213018
0.00281778
4.06121e-005
0.00274239
0.00449313
0.00874396
0.00271183
0.00227608
0.00573486
0.00145621
0.00641966
0.0552814
0.0107454
0.00621332
0.000807964
0.00279847
0.0068481
0.000581579
0.00253731
0.00203317
0.00465693
0.00612334
0.000718305
0.00113459
0.0017669
2.15587e-005
0.00112247
0.00278599
0.00528358
0.00593383
0.000524188
0.00371783
0.00764881
0.00189665
0.00192533
0.00694523
6.27364e-005
0.0019461
0.00303846
0.00422812
0.021287
0.00796993
0.00295991
0.00898406
0.0017879
0.0012972
0.00630475
0.000174419
0.0058052
0.00957535
0.00813575
0.003264
0.00699797
0.00983531
0.00185491
0.00249955
0.00585574
0.00319446
0.000469574
0.00258306
0.00607541
0.00912968
0.00157731
0.00562223
0.00563363
0.00568629
4.44271
0.00950648
0.00302536
0.00875443
0.000854493
0.00256513
0.00381826
0.00376111
0.00815698
0.0156598
0.000208181
0.00956354
0.00680692
0.00641974
0.00702621
0.00201979
0.00685975
0.0059414
0.00649039
0.00104727
0.0058833
0.00402083
0.00838997
0.0100632
7.53278e-005
0.00285246
0.268928
0.000674425
7.81532e-005
0.000283042
0.0235661
0.00812221
0.00235926
0.00764753
0.00649682
0.00217502
0.00131787
0.00285861
0.00698806
0.00302294
0.00163903
0.00214429
0.00740697
0.0029529
0.000948099
0.00605092
0.0033195
0.00483309
0.00334365
0.00170058
0.00867069
0.00525112
0.00835287
0.00657848
0.00590006
0.000898142
0.00123414
0.00565722
0.0132334
0.000304327
0.00585681
0.0046608
8.59163e-005
0.00157121
0.00663762
0.00849371
1.8658e-005
8.39013e-005
0.00771683
0.000330693
0.00182217
0.00829383
0.0035018
0.00199182
0.00390132
0.00621027
0.00946585
0.0028263
0.0102827
0.00644432
0.0070774
0.00354663
0.00933199
0.00104555
0.0060535
0.00996086
0.00514406
0.00962218
0.00574593
0.00127862
0.00213562
0.0167047
0.0061457
0.00077714
0.00591747
0.00440893
0.00604558
0.00195684
0.00375449
0.00997366
105.722
0.00401824
0.00412807
0.00625347
0.00302266
0.00502672
0.00324073
0.00614307
0.000191877
0.00879962
0.00572822
0.00960539
0.00257322
0.0762489
0.000783475
0.00262447
0.00184295
0.0073474
0.00781595
1.65084
0.00231056
0.000601589
0.00290331
0.00264145
0.00183803
0.00287772
0.00449154
0.00980193
0.00531752
0.00181185
0.00474246
0.00938226
0.00824532
0.0191747
0.00344546
0.000496401
0.00921222
0.00650361
0.000561161
7.00264e-005
0.00668885
9.40037e-005
0.0030202
0.00082532
0.00154304
0.00928923
3.19219e-005
0.00533484
0.00524262
0.0045093
0.000624345
0.00493917
0.00296258
0.00546498
0.0014254
0.00312833
0.0019244
0.000866319
0.0043216
0.00208172
0.00677834
0.00877607
0.00548659
0.00820232
0.00885028
0.00223274
0.00305
0.00470351
0.000694783
0.00199905
0.000854999
0.00281179
0.00799981
0.000906496
0.0134411
0.0101659
0.00590834
0.000159995
0.00421824
0.0411486
0.00475201
0.00113004
0.00448934
0.00470625
0.0115104
0.000350637
0.00162738
0.000236637
0.00304487
0.00909431
0.00429141
0.00336536
0.0033476
0.00270588
0.00363078
0.00565789
0.00836635
0.00188668
0.00100361
0.0043888
0.00450642
0.00204139
0.000346774
0.00469167
0.00236005
0.00352848
0.00418237
0.00795184
0.00344666
0.0063115
0.0031866
0.00511701
0.01063
0.0038601
0.00508535
0.00930392
0.00315867
0.00789055
0.00773235
0.000468148
0.00591059
0.00470696
0.00101373
0.00541041
0.00497472
0.000354477
0.00402937
0.00646451
0.00515766
0.00515968
0.00498901
0.00112465
0.00566687
0.00179312
0.00973877
0.0032471
0.0168736
0.0055752
0.00474916
0.00169184
0.00780457
0.0121805
0.00378342
0.00609211
0.0023074
0.00431668
0.00357776
0.00986398
0.0080933
0.00160275
0.00816465
0.00334902
0.00290611
4.52682e-005
7.2855e-005
0.00256726
0.00736313
0.00269197
0.00462231
0.000892186
0.00353491
0.00377993
0.00475537
0.00619162
2.86788e-005
0.00834915
0.10947
0.00173147
0.00117029
0.00760409
0.00258866
0.00469404
0.00757983
0.000355432
0.00501804
0.00920829
0.00673454
0.00426523
0.00649234
0.00283721
0.00662999
0.00646664
0.00183698
0.00786246
0.00338613
0.0035109
0.0038986
6.44017e-005
0.00467946
0.00278199
0.00515706
0.00566529
0.00743332
0.082447
0.00352013
0.00431205
0.00567024
0.0552501
0.00101524
0.00510416
0.00615855
0.00841806
0.00517522
6.63644e-005
0.0068122
0.00367407
0.00128024
0.00292561
0.0134149
0.00535913
0.00342039
0.00117113
0.00772968
0.00749793
0.00225237
0.00211501
0.00181056
0.00120835
0.00203067
0.00181876
0.00512941
0.00936235
0.00479719
0.00437506
0.00136274
0.00578233
0.0010327
0.00321586
0.00846049
2.67917e-005
0.00139268
0.00235607
0.00963894
0.000200381
0.0051249
0.00749278
0.00552024
0.00424684
0.00459461
0.000889851
0.00428812
0.00590401
0.00303933
0.000724628
0.00486633
0.00598543
0.00116719
0.000799806
0.0195451
0.00297007
0.00748879
0.00528128
0.00313561
0.00819207
0.00745918
0.00252379
0.00440375
0.00506335
0.00520606
0.00509094
0.00564228
0.00585153
0.00908033
2.97307e-005
0.00820971
0.00173936
0.00567976
0.00353661
0.00264059
0.0033519
0.319671
0.0074102
0.006787
0.00740588
0.0578418
0.00570815
0.000606482
0.000601333
0.00602776
0.132912
0.00270996
0.00267725
0.00483596
3.38337e-005
0.00227326
0.0107487
0.00026954
0.0012854
0.00779077
0.00410463
0.00219251
0.0188756
0.00416879
0.00254549
0.00854458
0.00331504
0.00270304
0.00495161
0.00373873
0.00630883
0.00297252
0.0071063
7.52314e-005
0.00837302
0.00698586
0.00530242
0.0003931
0.00661679
0.00307886
0.0025176
0.00526619
0.00605977
0.00123855
0.00775811
0.00951019
0.00557465
0.000598956
0.00425941
0.000249693
0.00104901
0.00128997
0.00725335
0.00569787
0.00730026
0.00543614
0.00290331
0.00851055
0.00821451
0.00264749
0.00267323
0.00758264
0.00201931
0.00153541
0.000900977
0.00406966
0.0037975
0.00606194
0.00292166
0.00483239
0.00567092
0.00593307
0.00293345
117.223
0.00356825
0.00903468
0.00467732
0.0059292
0.00906909
0.00638771
0.0026371
0.00820361
0.000715119
0.00110338
0.000289935
0.00831272
0.00157081
0.00647654
0.0075532
0.00506866
0.00294981
0.00513099
0.00512864
0.00992878
0.00556152
0.00097861
0.00414717
0.000551093
0.00622138
0.00745079
0.00841875
0.00508273
0.0117007
0.00604214
0.0442626
0.0052718
0.000750797
0.00418928
0.00916128
0.00518222
7.55742e-005
0.00485221
0.00579914
0.00281374
0.000897509
0.00582179
0.00635757
0.00372727
0.00355752
0.00263823
0.0028385
0.00177101
0.00546697
0.00453683
0.00373681
3.88472e-005
0.00183207
0.000842399
0.00604152
0.00288673
0.000323536
0.0089259
0.00374513
0.00352034
0.00373832
0.00573392
0.00990452
0.00421724
0.00360682
0.00949598
0.00448518
0.00731562
0.00539457
6.36782e-005
0.00249452
0.00754251
0.000106233
0.00051647
7.67216e-005
0.000214892
0.0052324
0.00590275
0.00860875
0.00893432
0.00578395
0.00728382
0.00291193
0.00840841
0.00519843
0.00947815
0.00110011
0.00684565
0.00338851
0.00563157
0.000326528
0.00709169
0.00586997
0.00158711
0.00121482
0.00621684
0.000331439
0.00947073
0.00893695
0.00401131
0.00180942
0.00520052
0.00586582
0.00344718
4.26808e-005
0.00478757
0.003729
0.0045519
214.216
0.00212389
0.00368665
0.00410353
0.0086606
0.00865077
0.00608757
0.00622246
0.000526926
0.0084443
0.00937283
0.00439959
0.00530763
0.00300582
0.00506479
0.00168823
0.00236182
0.00619526
0.00133968
0.00363583
0.00232091
0.00200055
0.000764734
0.00723857
0.00564021
0.005944
0.00419056
0.00574152
0.00421203
0.00630929
0.00456913
0.00591311
0.00851937
0.00662827
0.00237516
0.00201452
0.00692782
0.00196752
0.00294452
0.0029877
0.00459164
0.00952747
0.00101593
0.00839513
0.00014525
0.00625894
0.00345127
0.00413574
0.00646675
1.27023
0.00104573
0.00245514
0.00332051
0.00381418
0.000363808
0.00301681
0.00604936
0.00485992
0.00501512
0.000675163
0.150259
0.0048831
0.0162195
0.00342845
0.00235843
0.0027857
0.00844989
0.00591425
0.00683008
0.00038747
0.00905494
0.00223454
6.69582e-006
0.00184177
0.00804893
0.00398316
0.00353448
0.00752889
0.00141648
0.00250831
0.00526445
0.00778082
0.0103118
0.00868491
0.0053772
0.00162521
0.00321403
0.00147721
0.00224338
0.00505006
0.00759302
0.00966645
0.00684342
0.00621568
0.00608642
0.00251222
0.00374027
0.00116462
0.000537077
0.00151564
0.00223101
0.00919528
0.0104629
0.00126178
0.0082556
0.00240128
0.000691211
0.00266068
0.000411373
0.00597397
0.00173014
0.00562561
0.00419583
0.0055481
0.00819549
0.00739737
0.0056619
0.00876365
0.00346027
0.00277099
0.00232371
0.00544974
0.00304738
0.00728058
0.00594574
0.00521328
0.00355918
0.000390294
0.00353494
1.09482e-005
0.000531609
0.00327203
0.00792908
0.00143221
0.00392305
0.00669925
0.0022826
0.00240794
0.00315173
0.00095209
0.00122877
0.00705209
0.00881291
0.000176895
0.00557252
0.00968968
0.00607269
0.00608254
0.00364529
0.00489336
0.0103226
0.00011525
0.0470677
0.00754653
0.00506924
0.000306856
14.9702
0.00540058
0.00489766
0.00256374
0.00411063
0.00606481
0.00116115
0.00834591
0.00841962
0.00550683
0.000493244
0.00462959
0.0166011
0.00262677
0.00583588
0.0091367
0.00110639
0.000920737
0.00281488
0.00432906
0.0102127
0.010437
0.00123329
0.00486387
0.00180872
0.00356116
0.00147509
0.00544856
0.00105383
0.00674938
0.00323839
0.00381467
0.00481521
0.00542466
0.0107672
0.00546652
0.00428292
0.00839512
0.0027603
0.00266168
0.00562567
0.0146911
0.0599628
0.00690964
0.0225792
0.00198605
0.00737388
0.00131074
0.000907149
0.00614813
0.00376414
0.00452681
0.00601377
0.0105232
3.31305e-005
0.00296614
0.00966312
0.00449854
0.0223062
0.00565979
0.00497748
138.39
0.00292967
0.00421948
0.00562025
0.00617274
0.00648128
0.00299034
0.0028418
0.00138491
0.00216894
0.00826357
0.00516705
0.00217222
0.00585714
0.0087541
0.00323721
0.00549704
0.0064717
0.00186943
0.00239084
0.00985722
0.0046559
0.00345458
0.00186906
0.000224665
0.00275891
0.00629946
0.00594682
0.00241426
0.00460554
0.00338294
0.00649159
0.000494211
0.00456764
1.26426
0.0150794
0.00365748
0.00065474
0.000566441
0.000680263
0.00241793
0.00503703
0.00745448
0.000477012
0.00483701
0.00270914
0.00887196
0.00158982
0.00301278
0.00339652
0.000193144
0.0044089
0.00663811
0.00602741
59.0661
0.00527586
0.00356268
0.00186874
0.0163099
0.00638311
0.00518645
0.00883164
0.00357354
0.00764629
0.00383041
0.000913648
0.00785939
0.0186192
0.00534319
0.00765615
0.00211059
0.00374793
0.0108385
0.0010006
0.0042673
0.00129154
0.00916764
0.00461148
0.0111905
0.00924604
0.00693897
0.00777411
0.00125498
0.00403264
0.00785083
0.00979095
0.00120322
0.00147164
0.140128
0.0102944
0.000177413
0.00128778
0.00321618
0.00241108
0.0054226
0.00799889
0.00385186
0.000163043
0.0108415
0.0093417
0.00494431
0.00297154
0.0132729
0.00283847
0.00805156
0.00628723
0.00512775
0.00661485
0.00228227
0.00441176
0.00654371
0.00474014
0.00210677
0.00799185
0.0088652
0.00826043
0.000452445
0.00299603
0.00697598
0.00557898
0.0520017
0.00573552
0.00261134
0.0944915
0.00837752
0.00595338
0.0041594
0.0173741
0.00329809
0.00690175
0.00325805
0.00711551
0.0136918
0.00268764
0.00522203
0.000776167
0.000370501
0.00419597
0.00313219
0.00787931
0.00269132
0.00629143
0.00309276
0.00618069
0.00790066
0.152213
0.0026094
0.000917475
0.00312496
0.00844872
0.00612325
0.00289857
0.000420537
0.00404489
0.125165
0.00234547
0.00233519
0.00447407
0.00303103
0.00164813
0.00156797
0.00639351
0.00706811
0.00553412
0.0057741
0.00177172
0.00485984
0.00880031
0.00659005
0.00527467
0.0046804
0.00835255
0.00252615
0.00190331
0.0069327
0.00252309
0.00885105
0.00773788
0.00540855
0.00121643
0.00193126
0.0111447
0.00323302
0.0117984
0.00285789
0.00434405
0.000101694
0.0025317
0.00784568
0.00831509
0.0066051
0.00846295
0.00688903
0.00571652
64.4636
0.000806929
0.00210666
0.00604684
0.00656939
0.000928916
0.00486058
0.0138763
0.00573696
0.00358186
0.00953307
0.00266007
0.00162743
0.000110325
0.00519517
0.000122664
0.00515883
0.00952297
0.000361675
0.0093275
0.00102215
0.00253634
0.00327606
0.00928445
0.00492959
0.00557471
0.00573081
0.00781737
0.00455879
0.000271096
0.00221067
0.00226062
0.239311
0.00423328
0.00385751
0.0098088
0.00436366
0.00348774
0.00521788
0.000462232
0.00558968
10.7597
0.00523759
0.00987067
0.00675258
0.00341769
0.0015509
0.0256451
0.0206586
0.0012916
0.00511436
0.0108155
0.00368782
0.00841587
0.00091311
0.0107044
0.00165752
0.00280569
0.00153021
0.00817426
0.00865519
0.00947926
0.00493312
0.0174799
0.000337457
0.00541565
0.000463467
0.00415981
0.00954503
0.00792596
0.0057544
0.00905717
0.00273043
0.00494693
0.00361009
0.00970023
0.00478707
0.000931644
0.0061305
0.00541974
0.00348745
0.0087946
0.000726659
0.00343889
0.00103014
0.00545194
0.00697125
0.00472734
0.00744701
0.00616414
0.00548235
0.00573547
0.00444614
0.00307644
0.00260005
0.00402724
0.117404
0.000104172
0.00242119
0.00577929
0.00603361
0.00462459
0.00669308
0.0107617
0.00690844
0.00578698
0.00241065
0.00158003
0.0881999
0.0029476
0.00451041
0.00596209
0.00994608
0.00438369
0.0090744
0.00796197
0.00189149
0.00845959
0.00269132
0.00224054
0.00558051
0.00177429
0.00523915
0.00676197
0.00177535
0.00143328
0.00105339
0.00152029
0.00118388
0.0017924
0.00140779
0.00148534
0.0013774
0.00743051
0.00827793
0.00339594
0.00252018
0.0106132
0.00243753
89.7198
0.00383974
0.0025459
0.00570335
0.00268722
0.00925747
0.00259763
0.00395814
0.00312029
0.0061205
0.00460513
0.00105021
0.000555509
0.00505587
0.00734308
0.00113994
0.00290778
0.00390889
0.00651426
0.00680047
0.00156679
0.000491075
0.00528674
0.00218898
0.0028986
0.00193004
0.0107555
0.00694188
0.00724894
0.00653535
0.00164593
0.00241683
0.00587305
0.00504241
0.00393514
0.00182336
0.00594667
0.000186343
0.037137
0.00581585
0.00260558
0.00214511
0.00466482
0.0349809
0.00829735
0.00505237
0.0014682
0.00426028
0.00225737
0.00790816
0.0110914
0.00445196
0.00450888
0.00439387
0.00505195
0.0324003
0.000296301
0.00200501
0.00571837
0.0030977
0.00779859
0.00265917
0.00145899
0.00411962
0.0015073
0.00548391
0.00024224
0.00495963
0.000195128
0.00534381
0.00567237
0.00532523
0.00429679
0.0107433
0.00329651
0.0102409
0.0346102
0.00892146
0.00961811
0.00591876
0.00294696
0.00629686
0.00475874
0.00087717
0.000863338
0.00731136
0.00481301
0.0089955
0.00175454
0.00261599
0.00636086
0.0104208
0.00948229
0.00367073
0.00851742
8.59545
0.00357644
0.00559036
0.00412659
0.00220859
0.00819743
0.00288426
0.034043
0.00305004
0.00231014
0.0104325
0.0177212
0.00442656
0.00415782
0.00405476
4.05188e-007
0.0064701
0.00776615
0.00227961
0.00326166
2.65975e-005
0.0026533
0.00033568
0.00186714
0.00407538
0.00470145
0.00143584
0.00489444
0.00487292
0.00782326
0.00450361
0.000331461
0.00634585
0.00123326
0.00586868
0.00777609
0.00150117
0.00899214
0.00373252
0.00579824
0.00478795
0.00190644
0.00018557
0.00361321
0.000192988
0.00965685
6.66226
0.00660462
0.00366625
0.00511749
0.00590814
0.00424748
0.00296172
0.00585385
0.00391795
0.0067818
0.0038931
0.00293758
0.00485516
0.00834978
0.00514037
0.00261367
0.00981417
0.00163125
0.00405923
0.00264841
0.000494744
0.00334268
0.00013579
0.00402104
0.000488358
0.00555361
0.00692505
0.0019689
0.0018206
0.00576878
0.00721832
0.00117097
0.0166451
0.00554736
0.00776066
0.00165697
0.00584062
0.00798964
0.00975728
0.00990683
0.0102582
0.00188775
0.00369996
1.15682e-006
0.00959656
0.0020356
0.00385231
0.00348334
0.00865744
0.00580458
0.00800101
0.00481127
0.00311864
0.00169093
0.00730626
0.00991008
0.00728268
0.00292034
0.00855675
0.00203093
0.00592689
0.00442603
0.00809712
0.00137658
0.00336341
0.00389584
0.00437414
0.00288468
0.00232058
0.00293116
0.00383295
0.00232852
0.00632412
0.00238905
0.00138278
0.00389011
0.00560707
0.00504385
0.000481977
0.00787722
0.000678201
0.00913769
0.00261591
0.00417089
0.0103702
0.00680843
0.00457685
0.00979595
0.0159978
0.408617
0.00429745
0.00807551
0.00369362
0.00289176
0.00666026
0.0100467
0.00323184
0.00267709
0.00345346
0.00411232
0.000103187
0.00774285
0.00220373
0.00230365
0.026078
0.0199179
0.00489794
0.0097872
0.00515191
0.00670188
0.00868291
0.00189044
0.00824524
0.0150005
0.00590564
0.00457799
0.00549914
0.00429541
0.154721
0.00478644
0.0018258
0.000138786
0.00574995
0.00245164
0.00288512
0.00819577
0.00860362
0.00526365
0.00814122
3.1047
0.00113739
0.00359178
0.00689751
0.00520994
0.00297779
0.00785034
0.0038741
0.00705537
0.00517698
0.00512793
0.00273353
0.00821416
0.00103419
0.00503355
0.00362233
0.00537198
0.00919585
0.00697044
0.00359252
0.00359343
0.0030166
0.0100081
0.00811881
0.00753523
0.00807563
0.00655581
0.00572778
0.00562256
0.00262477
0.00580634
0.0027428
0.00258826
0.00785048
0.00643437
0.0956174
0.00685611
0.00535187
6.24184e-005
0.0141227
0.00329753
0.00439619
0.00478846
0.00184814
0.00852307
0.00411012
0.00652192
0.00758293
0.00402944
0.00653473
0.00190496
0.00494006
0.00328234
0.0008817
0.00529389
0.00656006
0.000613525
0.00252279
0.00272963
0.00710695
0.0039649
0.0030421
0.00355498
0.00406815
0.00575203
0.0216902
0.00826174
0.000810924
0.0106833
0.0177983
0.00859667
0.00178059
0.00463773
0.0141337
0.00127984
0.00146058
0.0166263
0.00847352
0.0193755
0.00130395
0.00538487
0.00212079
0.00281232
0.00827014
0.00692084
0.000341161
0.00538396
0.0076342
0.000430318
0.00481076
0.00148039
0.00728572
0.00426372
0.00553246
0.00151532
0.00555585
0.00539208
0.00277278
0.00104107
0.00152988
0.00515315
0.0086354
0.000556445
0.00237921
0.00151307
0.000628824
0.00904568
0.000934869
0.00679441
0.00559176
0.000946911
0.00761732
0.00236849
0.00914195
0.00274153
0.00115488
0.00430917
0.00705208
0.0015234
0.00553594
0.00219939
0.0073941
0.0118164
0.00607415
0.00472186
0.00436488
0.00058965
0.00310067
0.00588812
0.132919
0.00619781
0.00565751
0.00264133
0.00470796
0.00352239
0.00606474
0.00548028
0.0139529
0.00846339
0.0119739
0.0026638
0.00756567
0.00201357
0.00245808
0.00442533
9.6471e-005
0.00692311
0.00498521
0.00271408
0.00525826
9.85848e-005
0.00309974
0.00186975
0.00276824
0.0152924
0.00441508
0.00425415
0.00237297
0.00963143
0.00633602
0.00486513
0.0128309
0.0208481
0.000565522
0.0141009
0.00262488
0.00511427
0.00505108
0.00498376
0.00388323
0.00504573
0.00524516
0.00753415
0.00478759
0.00325567
0.00197541
0.00439038
0.00188682
0.00537343
0.000791273
0.00640952
0.0105818
0.00771739
0.00165546
0.00352488
0.00524657
0.00534149
0.00515827
0.00383099
0.0024779
0.00957308
0.00242549
0.00210215
0.00223927
0.00416206
0.00145392
0.00790771
0.0042603
9.69673e-005
0.000798505
0.00471395
0.00317665
0.000565937
0.00649577
0.0030709
0.00324409
0.00513308
0.00591044
0.0066253
0.00694445
1.26112
0.00897198
0.000218988
0.00535192
0.00328196
0.00121642
0.0043392
0.00255423
0.000547636
0.00979449
0.00451709
0.00755118
0.0800207
0.00246644
0.00824582
0.0256561
0.00748967
0.00644255
0.00536572
0.00476693
0.000387684
0.00387139
0.000161867
0.00314893
0.00720744
0.00388587
0.00343065
0.00770304
0.00822668
0.00696548
0.0132767
0.00813668
0.00277903
0.00481528
0.00626598
0.00347806
1.83592e-006
0.00907002
0.00280996
6.20887e-007
0.00404066
0.00367525
0.00387542
0.00377614
0.00957655
0.00200351
0.00625914
0.00332251
0.00523885
0.00247701
0.00618225
0.00419942
0.002069
0.00482514
0.00261921
0.00872174
0.000122895
0.0025497
0.000185973
0.00233684
0.00268344
0.00586302
0.00154356
0.00875681
0.00736213
0.00242951
0.00960431
0.00205544
0.00245319
0.00226161
0.00164232
0.00224794
0.00428083
0.00177807
0.0071142
0.00522825
0.00345618
0.00559677
0.00741006
0.00261838
0.00919713
0.00331585
0.00951637
0.00976347
0.00251387
0.00346208
0.00114321
0.00522657
0.00612751
0.00843157
0.0028238
0.0016666
0.00539278
0.0106852
0.0102391
0.00426609
0.00469673
0.00676641
0.00137109
0.00335009
0.0113818
0.00272682
0.00345418
0.00859597
0.0166394
0.000241076
0.00975678
0.00203601
0.00669673
0.00158004
0.00273437
0.00278721
0.00577961
0.00440741
0.00990827
0.0052831
0.00118742
0.00694241
0.00247743
0.00565067
0.0016355
0.00104402
0.0064188
0.00519603
0.00347605
0.00314479
0.00254975
0.00333682
0.00519022
0.000676873
0.00220415
0.00920165
0.0021153
0.00446178
1.19237e-005
0.00623861
0.00572277
0.00167987
0.00841464
0.0083328
0.0208274
0.00237061
0.00655922
0.00331659
0.000330721
0.00527129
0.00450227
0.00519942
0.0210637
0.00114763
0.0018504
0.00464943
0.00187692
0.00557059
0.00385747
0.00663896
0.00566581
0.00376703
0.00249889
0.00690359
0.00421854
0.00435405
0.00359315
0.00254228
0.00593343
0.00635543
0.00150351
0.00440634
0.0246446
0.00135255
0.00334678
0.00324012
0.00495452
0.0022488
0.0069895
0.00998371
0.00127589
0.00446916
0.00466817
0.0078174
0.00701018
0.00457814
0.0130422
0.000180614
0.00601189
0.00351965
0.00606996
0.000495874
0.00489733
0.00620225
0.0281247
0.0157776
0.00134632
0.00723051
0.00215139
0.0101294
0.000990549
0.00301651
0.00375501
0.000361241
0.00432842
0.00890081
0.00142359
0.00566726
0.00808384
0.00561557
0.0194546
0.00481199
0.0049527
0.00762609
0.00800127
0.00333952
0.00205757
0.0206855
0.00240254
0.00319041
0.00596883
0.00275835
0.00332754
0.00326301
0.0013078
0.00634822
0.00263587
0.0211757
0.00559073
0.00835683
0.00367073
0.00588051
0.00755099
0.00865178
0.00104291
0.00595597
0.00216037
0.00251106
0.00532678
0.00587248
0.00553975
1.68061e-005
0.00977033
0.0046348
0.00864729
0.00573967
0.000463995
0.00563433
0.00557812
0.00794781
0.00241218
0.00532844
0.00481158
0.0099719
0.00292809
0.00630657
0.00592084
0.000302309
0.00603868
0.00225783
0.0061623
0.00566955
0.00173823
0.00691383
0.000850976
0.0048438
0.00418301
0.0016736
0.00221038
0.00816024
0.004093
0.00599939
0.00467606
0.00547148
0.0055739
0.00227758
0.00622246
0.000196655
0.00137716
0.00847112
0.00143412
0.00504464
0.0115889
0.00128456
0.00682417
0.00337036
0.00922189
0.00988209
0.00289897
0.00568878
0.00456555
0.00280857
0.00367495
1.64102
0.00443646
0.00620095
0.00218763
0.00487364
0.00326326
0.00424146
0.00612079
0.00659535
0.0150396
0.0103573
0.770043
0.00431567
0.00346924
0.00737213
0.00477081
0.000922906
0.00230807
0.00337855
0.00558472
0.00918204
7.50773e-005