/*--------------------------------*- C++ -*----------------------------------*\
| =========                 |                                                 |
| \\      /  F ield         | OpenFOAM: The Open Source CFD Toolbox           |
|  \\    /   O peration     | Version:  dev                                   |
|   \\  /    A nd           | Web:      www.OpenFOAM.org                      |
|    \\/     M anipulation  |                                                 |
|*---------------------------------------------------------------------------*|
|* OpenFOAM for Windows 18.02 (v1)                                           *|
|* Built by CFD Support, www.cfdsupport.com (based on Symscape).             *|
\*---------------------------------------------------------------------------*/
FoamFile
{
    version     2.0;
    format      ascii;
    class       volScalarField;
    location    "2e-005";
    object      p;
}
// * * * * * * * * * * * * * * * * * * * * * * * * * * * * * * * * * * * * * //

dimensions      [1 -1 -2 0 0 0 0];

internalField   nonuniform List<scalar> 
23640
(
796.51
694.563
51.6277
702627
1205.07
10088.6
1015.24
3530.24
4618.26
9183.72
647505
2145.95
1236.87
813.828
15336.8
9275.82
297.635
438701
556371
5752.26
623207
25.5719
619202
614713
2227.3
1551.79
52329.1
8283.55
155.522
1087.64
949.37
830358
624213
3115.52
5738.47
14020.3
331.293
516.754
76.123
665425
2254.74
5022.35
1241.52
61.2351
706492
72306.4
641.265
1155.28
9193.66
3678.62
748032
450605
12197.9
292.777
702576
7640.97
10792.5
973.376
471.9
711953
909.232
74160.4
687858
468973
571.821
466036
7206.45
1990.86
411815
1458.01
682073
2999.6
560404
265.94
8663.99
821758
9245.61
1201.42
560793
683769
88283.6
15863.2
441.774
443.366
563.014
9302.99
448029
651658
573479
15890.3
609.679
1388.83
8122.78
562262
441256
2186.09
479122
10103.9
4739.05
8070.06
9770.38
297.115
614685
193.493
4038.59
490.641
701939
216.688
2196.77
4406.55
820.367
561809
3580.31
2211.05
39122.9
107.576
15598.7
757.054
704.826
1348.56
623152
715203
11214.6
721224
19719
647587
765975
20493.3
9941.45
1923.73
13514.5
9742.58
1321.1
30120.7
196.998
651769
641209
2115.39
644520
498901
4662.94
11157.4
553396
647929
552039
3004.76
659185
666896
623.919
451504
3871.92
11179.4
464.532
693952
9826.07
237.913
1034.55
3189.78
6799.71
50939.6
16864.4
8962.68
13915.8
6064.8
107.47
90.8379
694366
46384.4
702215
9507.21
1158.63
36408.8
8566.77
2040.75
694823
695439
1964.38
39203.1
684824
1286.71
706500
5779.41
2118.45
6347.19
180.518
225824
18372.4
5772.1
713307
7130.94
6976.43
651397
714241
462.322
220.776
661149
4068.29
13053.6
7663.47
33917.7
602957
30.6503
561.466
4949.94
577879
540.02
7751.76
620585
24690.2
694844
913.613
1914.02
1669.09
550.889
11646.4
3477.13
1260.17
5631.41
5794.5
40.9177
1809.73
647069
604325
2174.36
612768
3381.33
1594.27
718563
47.2789
610.846
832.262
194.779
4345.38
1821.58
3125.9
15914.6
681175
3440.74
624.325
84897.4
10872.8
38929.3
2246.03
5149.57
701223
265.748
2590.74
7581.9
684710
637473
712447
1545.91
642.79
695266
488.879
666236
29.3684
213.005
703990
703519
705793
814.608
9247.95
2351.62
141.964
1339.92
34510.2
5070.59
488.737
426121
5641.09
79.9411
623488
713244
20656.2
3151.5
188.336
715999
470785
1979.26
649460
76.3016
216670
653581
7583.4
74987.2
5042.19
15007.8
870.09
651747
2882.41
241.499
3258.36
5882.34
642825
3291.37
1955.97
286.535
1839.67
486.44
49448.8
476518
716632
2081.2
635245
100.1
11129.4
47347.6
704346
555883
189.959
17244.7
695142
559177
599874
31999.1
5417.06
45.0864
449677
8724.37
1008.36
3123.55
5913.83
7853.96
193.677
14767
721463
3319.21
1606.98
778172
218584
3356.58
6460.83
11071.7
2790.12
2244.63
6902.71
5357.31
3358.84
1825.65
8622.8
518662
9549.07
718253
653343
420923
57272.5
2072.16
3175.82
4412.73
703265
12948.5
206.442
753.353
5800.63
105.147
3296.97
662.934
688056
648946
17462.7
630646
496422
436.122
3253.43
48.9359
64.0231
6381.28
560542
1312.91
27579.4
524385
190.072
602618
18922.5
205.835
724009
37.5503
3357.63
35649.1
556219
519628
3453.36
515635
4213.4
206.933
9049.91
79.5548
662169
83.1743
400533
12185.2
8556.22
11788.8
6350.87
636825
715058
518.535
610.839
48834.9
693.603
694471
11986.8
89.9693
1247.65
1541.74
705924
162.661
12062.5
6693.11
12691.8
684470
699080
5979.25
659672
2128.52
69450.4
1608.57
8552.6
4175.99
703716
406316
1770.69
13285.2
10834.8
100.824
719967
12214.3
632600
4533.43
198.943
708682
693005
616003
19011.9
654599
29638.6
15207.9
64680.4
722652
11699.4
688769
14259.1
9335.88
157735
6401.58
54655.9
5860.77
616624
6471.89
1.1968e+006
7157.01
695826
11750.7
373743
196.471
829.42
11105.8
704945
7541.57
8319.02
7377.7
3355.52
927302
12733.2
1322.44
12723.6
9402.64
7596.22
7169.34
12575.3
2371.96
705791
31.8385
1029.28
78763.2
1010.29
901670
16829.5
761555
5528.14
146.787
6163.03
9367.56
15440.9
21940.6
620700
40.9712
1017.48
473.799
33111.2
758403
1109.9
633197
3141.64
1537.44
7401.06
199393
29234
627.73
2003.42
675600
99.9231
2663
2507.31
482.218
5795.99
170.602
233.128
1250.92
77641.7
954.613
8546.71
9161.09
610164
2562.54
3293.12
207.803
5410.78
661105
13769.9
366067
1.20588e+006
16395
844.842
3623.16
600613
7283.06
559228
462.341
1729.96
614623
20906.3
15098.5
9363.87
1633.67
11728.7
8483.39
223.402
2772.21
5501.01
2446.49
3294.14
1766.46
401.548
1089.74
16078.7
562500
2152.94
2168.11
77521.9
1796.36
8921.38
40.1033
60518.7
1499.27
2311.14
37311.2
640157
694775
4602.58
658808
2594.87
34915.5
516327
615754
8193.11
590300
52443.4
8875.16
1.16323e+006
920.16
3120.43
410.767
723.783
559338
12441.1
9217.81
5373.84
530.576
708496
4055
667.014
7432.19
562511
580421
4937.01
5148.67
1471.1
591757
685433
2393.94
2173.28
5259.55
483.14
456766
5193.71
29692.5
2363.62
7455.11
658370
619230
704957
18891.1
1170.54
7144.27
9810.45
830.981
2725.69
598925
1459.45
3866.47
2199.1
1763.37
10537.9
8665.06
10265.6
3473.53
380.716
722794
576262
1986.61
1925.7
686283
1041.75
438011
1283.66
606702
2180.87
14560.9
58.7738
5427.06
314.307
1276.25
41.653
704531
2157.12
1316.1
466.995
15282.7
5280.58
11169.2
659801
1242.56
5682.03
4065.42
604033
28376.4
179.42
2085.83
9971.26
719088
551801
587.386
5438.59
718660
29508
622587
1332.41
4789.98
6006.69
58064.6
104.081
15899
31.8615
23.5063
1629.89
719023
565968
7882.63
717078
4118.72
1601.67
13136.1
480474
353.009
1725.34
1806.44
509.25
676546
715035
4511.51
2358.6
58.7421
2935
156.652
705151
2727.73
82750.4
716985
154.859
6830.35
359364
587.603
352312
231.19
14677.3
2225.33
644899
3391.54
857236
473418
3591.97
623321
283.523
2674.58
663711
5795.72
672271
5017.34
566672
652302
22931.7
62.8742
21.2339
14649.4
12380.6
942.041
612744
15392
6832.06
74993.6
5523.92
50.9789
9265.02
49.3002
122.901
261.953
3683.51
700057
2634.22
560.512
677874
655236
327.747
3161.01
14524.9
2175.21
679101
3521.14
4956.28
2892.14
680100
19119.8
180.258
258031
640.369
486993
165.258
1625.96
259518
64.5803
2277.41
1445.35
1784.62
903509
33060.2
218.277
437171
675462
737.003
469.129
340976
4087.28
704465
10717.1
660614
4044.96
525109
9157.28
14785.9
5129.17
63634.3
3601.5
583648
1332.35
699252
4681.5
381761
7609.1
5162.52
725721
37.756
7987.4
10286.6
765849
27020.5
158.939
6067.8
3636.19
25.6015
13304.4
541032
2243.42
72.9303
641314
5552.66
683742
460.538
665898
5576.56
12079.4
2974.89
830.804
6207.47
716397
945.309
562728
670133
1494.86
8815.87
606785
1569.81
706324
7211.94
7696.79
901.286
494351
15683.3
2271.07
4614.9
10348.1
543740
8886.9
16059.1
668172
14530.2
711.842
5341.66
347424
1617.79
32614.4
393.467
479229
3492.21
2762.03
9472.34
168343
50.806
1347.01
480979
7849.61
636730
3079.77
353.397
186.921
694534
1638.29
672986
1485.12
1410.55
1262.91
13960.1
2318.77
543532
1.17831e+006
5408.81
11692.3
5476.05
11107.4
5134.82
776.383
2100.22
702075
76484.9
1186.07
634606
481.92
708383
14822.2
17999.3
673106
687571
637940
883028
154.211
715836
98228.9
206.559
79.8958
4896.56
1050.56
478235
973.43
20222
9576.53
683823
13797.5
704812
3165.05
28.7923
29016.7
2209.8
13085.7
669160
9001.84
7260.08
5403.62
32.3262
607143
598333
7672.51
1215.02
993.352
352338
49.3864
13249.7
5401.55
5668.26
235.113
27992.5
85.4752
9864.5
8979.68
723034
2036.46
99113.8
700477
586597
671604
12908.4
521968
1114.17
663930
100.218
13103.4
207.681
4470.87
8666.99
821289
476301
561409
54.8559
3602.98
706199
18130
15214.4
1802.44
4355.8
679599
8733.52
59.0079
8300.96
10668.1
672769
10912.6
671918
370829
203.46
742.842
1864.41
645879
328.506
15232.6
623.172
1031.95
700002
39.888
1101.11
169.698
3556.02
609.689
579418
1481.83
2114.34
5427.82
1378.48
718382
460.037
1444.28
621335
713.528
650012
3341.41
10414.5
1278.3
2814.4
15194.8
2423.32
683136
10175.1
512.932
2278.6
1359.86
1552.93
562927
32.4791
1375.57
651887
555058
1148.43
704437
3082.63
2863.52
674960
4095.1
717572
471.314
4434.95
13992.7
10000.8
1447.58
386645
7426.25
16838.7
66935.8
18792
202.427
7440.08
13974.4
116.676
2565.13
560.165
962.62
634092
12069.5
4165.85
900.797
3900.03
10964.6
566000
718566
41.8155
645849
9600.96
206.783
793.603
704008
494511
1470.08
524083
8892.57
3961.97
4269.67
397.63
2710.92
1460.03
15844.8
3740.75
592.218
1478.65
671252
540189
899.04
279.287
52132.4
3171.3
79502.2
708857
3794.13
478.773
2073.76
708061
642317
565466
2026.73
434657
2854.82
13544.7
5125.2
7728.8
606008
426.677
686291
1579.48
1572.99
36.943
38552.4
204502
13392.4
692669
74.0746
8768.42
114020
85479.4
3304.08
27744.4
939.765
624.175
643347
1191.56
11761
4952.13
146846
9376.59
15689
7344.48
569734
693408
2248.47
7425.91
2509.82
940.097
9992.25
42605.6
1288.32
1354.69
416.003
15629.3
1234.03
4409.06
33.0397
30.735
698747
218.178
2487.07
630809
412.242
4423.28
92237.6
544246
5171.27
988.043
972.44
2961.6
2864.85
40774.5
246973
6996.17
13209.4
695429
1204.5
1042.92
162.766
356.574
717412
2610.42
3995.49
2598.09
706406
569830
9395.68
9349.67
696331
872897
197.585
45.6202
3750.45
6606.51
149.265
473941
7182.01
110.108
652683
5042.72
22135.3
698553
708382
173.521
124304
12663.7
488.02
1600.36
4063.6
3231.29
236
184574
504796
13454.7
634651
2803.35
7971.39
472937
605.659
10969.1
8594.34
528151
570622
5628.44
100136
7228.98
8856.4
8913.48
9432.53
8374.27
6771.58
2456.94
573032
6053.7
2047.98
630.127
556616
583661
161.466
265.307
596272
86806.2
102.129
628189
771.301
508548
1851.74
6155.45
3789.32
1784.64
1429.16
229.424
1.16616e+006
4456.58
659130
681.011
7234.47
660473
2785.05
188.07
13372.6
9622.25
643216
8858.77
653946
80.3317
2671.11
2425.88
1267
1145.86
1461.74
995.103
263307
1349.48
33.5866
530.826
9815.33
2230.01
403673
643894
1914.07
680766
250527
706097
8575.5
15378.6
521.616
529579
1700.79
42.3739
1230.38
1495.85
690.66
30.9824
3157.19
2109.82
6694.78
8377.46
702622
13073.8
60.4081
3007.06
454321
5725.07
7556.07
834056
14277.5
5954.65
209.74
8046.79
17725.9
789.597
1393.66
763.466
7590.99
661569
7771.17
512348
102313
12755.9
2475.53
1837.92
22.0763
136.187
2874.28
683373
73.8893
13625.8
54.7922
3099.53
672978
158832
661411
4566.03
2122.28
14212.2
420476
2233.73
632895
16970.3
1550.94
483.978
1065.31
16093.5
6293.9
2014.72
15992
9030.13
2229.93
8861.1
27551.1
552621
482.781
502.069
3420.89
1387.3
787.404
12033.5
925.094
757.686
2228.43
1.19304e+006
7404.93
7583.22
5633.61
552958
643967
669979
2676.56
8289.92
12797
602116
971.85
959.87
407.966
4806.2
112.963
177.003
7792.66
97.4794
12107.9
147.486
666352
61074.2
8494.57
1951.61
1602.85
6109.35
2010.63
701049
2669.48
47142
1547.25
685242
689396
151.594
58.6402
1872.09
31.9863
467.922
4785.66
9910.19
634107
10194.8
693987
6663.91
3223.21
790.754
6951.88
4043.69
808120
682132
14983.4
29472.7
11214.4
11176.4
559008
1269.1
1226.59
3067.3
96.4593
828112
2038.84
701804
692.927
169.043
162.752
4483.64
2215.91
6770.48
7119.99
554634
683631
26.7605
151.978
4139.62
5306.73
827.141
67386.7
6532.87
42601.8
5076.64
36798
667810
50768
1879.68
399.322
10346.6
10205.6
28909
1499.45
9434.57
56252.2
4794.13
84638.8
5117.39
155.34
5936.73
589330
465608
580095
85.6107
661313
437306
15906.5
4304.19
159.437
11866.4
83.287
666259
2152.57
497.141
1289.37
7432.14
1861.69
652690
4414.17
30749.9
693626
7133.11
5729.81
13443.8
5523.26
7311.06
9057.39
1223.83
1187.51
713.136
7740.86
352.134
31.4984
13180.1
332.683
588588
93.4626
5114.21
1668.39
10019.9
6544.03
1418.08
49.8619
28.3647
2036.95
608097
13504.5
1182.36
715010
1271.57
3975.56
2353.06
5803.52
389233
9015.91
706508
715023
1500.65
46.203
912653
1057.54
2779.57
15361.6
683376
1531.31
7253.63
8069.19
4384.77
1742.3
13185.5
9977.02
708695
548146
1681.77
421097
506025
49.6908
5862.04
503576
667896
685091
15817.6
1216.63
716708
9279.19
8049.77
1620.43
485467
637296
331.314
735.048
1206.35
1534.38
462920
1360.81
1005.55
4542.21
689703
25481.6
2075.46
691455
706769
694123
713758
147.658
9097.18
587063
627101
3410.2
10686.8
1064.48
1772.49
483368
6591.16
27180.4
566483
1023.11
701415
708540
695568
1.20987e+006
565.328
702.939
2166.79
3751.64
177757
132651
178.296
43.8376
11803.4
4291.47
1235.43
20958.5
2198.75
689815
5240.26
1754.31
1762.11
65.6261
9428.82
662729
857.207
735.56
720754
694199
12716.9
1452.55
1937.12
10178.6
930.691
664.528
7801.68
13555.8
658407
739168
702121
6650.31
16393.4
12422.6
727386
6562.51
6966.81
3935.33
543050
557.679
672150
532375
12942.1
12415.6
333.488
31.3024
604318
3795.21
2045.3
1.12557e+006
1518.4
6583.49
8239.85
704830
2566.26
1514.31
537011
4435.98
65842.3
487.478
576230
10417.5
699444
2115.59
5601.66
15657.8
4817.21
451074
16403.4
1972.35
6770.07
20738.4
2804.59
675290
21294.7
463334
4226.03
8299.19
455.574
4080.52
44887.3
90.7539
8100.84
717856
442521
14484.7
683048
662.022
27616.3
1159.79
207697
493.305
6860.68
690752
689493
944.297
3796.32
685315
83.6536
6850.26
3474.38
1404.41
4611.19
147.87
962.236
4132.85
604704
5256.6
21957.4
673452
19058.5
81.154
3852.24
1723.55
4103.01
761975
13071.8
700275
720367
4671.31
1792.88
3407.13
696308
516.312
1841.19
9057.04
1897.49
686759
162.843
7433.03
14815.8
701291
682662
12701.4
657424
196.042
1433.68
689164
507666
6371.1
718530
162.887
30.5378
736.206
52984.6
8011.52
951.711
521724
848.438
722763
212.509
621.308
986.031
176.341
875502
859922
1512.1
539969
1915.14
1381.9
687657
1127
29152.4
3767.11
2801.56
856.313
4653.99
48.815
569199
2043.42
140.384
17413.1
2923.88
1137.11
16278.1
99.6539
675478
1944.47
725983
11970.1
3216.02
667465
682909
597292
4518.37
611762
581607
5255.3
6870.43
1.11333e+006
669375
45.1535
1881.56
608907
625247
2045.87
687440
630485
702827
680942
336.062
42.4761
8527.54
3122.56
8871.73
37260.3
599463
11106
623454
163.027
203.785
5013.83
513888
656069
7323.25
1675.56
639678
702.95
9901.92
8687.56
689.397
719078
3960.53
676553
46494.8
4164.86
364740
6227.43
9477.18
1952.57
1.03666e+006
3402.86
247945
2621.09
646.639
15955.5
703168
700280
92.7464
2311.5
458941
5342.88
14359.3
673538
363896
419405
6027.84
76.7862
577787
135111
677824
1672.15
705583
476201
1139.14
38.2602
567.948
28120.8
686696
8698.56
417499
12554.1
629.02
8335.08
52461.1
1096.48
8576.28
2027.9
7675.02
14397.5
609851
9652.83
10608
670584
1505.03
5475.06
545770
17157.5
7962.18
1114.65
1885.64
4293.8
638.899
180.195
5516.58
711531
6862.83
147.72
6798.1
1292.97
7865.93
3736.57
370177
73717.8
3330.44
274.263
79.2868
709710
12825.3
1800.63
1865.91
541531
898.28
674296
683180
56.3332
662620
700920
384.614
1289.63
656354
7294.17
1706.54
52.9378
68.7688
40.5586
36.8716
32.7401
51.1854
68.8951
45.3717
60.505
4481.78
33562.6
1671.59
150.954
479864
365.086
1.11207e+006
1199.27
160.697
2986.1
43.4921
591757
222.126
6965.15
647.93
5840.87
10190.4
128.97
665808
2461.93
3895.33
7015.61
7286.28
84410.7
3777.89
4532.16
58.1945
7391.97
2046.39
586771
8712.85
24999.4
692435
1716.76
2209.98
1466.33
57.5103
166.787
1412.39
1927.66
602.904
497.833
671692
11179.2
754801
3150.24
431518
696566
1103.88
740497
19341.8
2399.37
45.8751
42236
160.64
591396
691091
1004.37
833.778
1150.39
993.185
704018
516830
9965.22
2462.42
531997
3725.78
165.238
607745
1109.05
10835
5584.71
9613.89
17698.4
601716
2429.26
13063.4
2839.87
1425.57
368826
3652.42
670947
711160
607898
645802
1699.14
117.948
3671.84
668282
16036.5
13905.6
2157.96
1138.25
82050.7
34.8133
252.778
3570.06
474900
56155.6
5845.63
544046
999517
4870.18
36425.4
658495
695635
550888
209.784
704552
13149
8165.22
481206
694863
897.164
679.345
481.068
22.0799
3606.45
6420.62
812.277
797.293
6892.41
627467
8719.28
14531.2
48004.6
963.367
15612.7
1005.76
7518.34
686015
9936.65
8960.89
2457.97
15744.9
2965.44
10934.8
16996.9
592064
846.793
3120.44
908.268
495.767
14884.7
34297.1
600606
512684
952721
1506.01
675888
1536.17
9184.31
597.129
642.01
2199.69
476.809
369433
8454.03
441742
2684.76
4083.91
3886.02
4988.56
681549
10063.1
8141.92
583.858
8473.38
116500
7267.97
462.013
7549.91
7300.88
4809.08
15707.9
690965
2101.01
2205.34
683654
696126
1847.94
3696.15
571427
36478.5
41697.4
678496
557293
291614
67.1288
7109.69
25.3862
637382
241.96
10224.7
9932.57
16048.4
8586.63
194478
3021.85
11340.8
687283
9003.26
548585
6540.43
555673
539709
7652.82
1728.53
969.799
20578.5
245.288
600.664
766.498
617.806
9872.17
40241.6
603.271
735.345
14034.6
4403.14
110.198
17859.9
5477.37
2048.63
445065
659523
6318.14
9469.11
329850
685926
10762.2
441072
4758.43
3715.79
551094
693773
757668
823.297
42192.4
626818
8922.8
508858
426632
5570.64
467.961
666.029
1781.3
8765.13
4023.66
145.79
158.066
703481
698912
3487.63
668098
7685.99
1619.56
65523.1
16597.6
7995.15
691999
4609.53
8557
1046.89
807.738
720004
2334.35
650483
681774
1517.07
224.391
426.291
4177.61
570407
1064.29
4148.01
904332
52.9844
625088
1680.09
602819
9308.7
108614
35702.2
2495.58
1049.97
3358.69
13911.4
687457
7200.25
1019.88
18523
2327.88
93553.9
2275.97
4074.15
862.649
250.549
692817
595407
5228.16
4232.56
3474.99
3135.72
4030.05
10356.1
513177
199.548
4683.12
459145
1738.16
721605
4541.82
3230.08
9174.84
697484
3648.13
865.182
947.124
107.862
4604.05
2909.62
3525.94
5964.25
552.289
5394.42
441.627
961.635
6787.63
12300.8
1027.76
2166.27
7470.45
212.583
205.842
4603.05
704.631
363.847
682790
514.542
1417.1
699093
11623.9
9087.13
669232
702930
4558.77
12024.7
278376
697084
16841.5
682842
741773
4092.03
709055
29.8645
1877.34
42.5461
379.274
4347.75
87442.2
8736.21
3195.27
6087.41
701948
3909.94
93.4783
2512.09
490.474
1360.27
56.2675
2108.48
1451.57
204.264
17796.2
107.721
657054
663999
21586.4
147.76
608718
602838
431355
679320
3128.04
4094.69
10080.8
63575.5
189.374
19125.6
13314.2
51.8376
952.383
2132.01
403.992
2206.54
167.314
3751.15
687038
1736.88
1101.37
897.467
502988
11778.5
3240.01
711487
2294.46
1882.5
194.725
1123.46
4689.48
75609.7
2333.15
691852
718350
687757
164.807
172023
123.378
102.865
2570.11
7358.36
2048.84
2674.28
11955.8
1009.25
668980
426.595
6864.78
174.886
722479
882.342
10714
139.61
93275.1
2755.09
1231.45
692432
715726
61.3404
690271
180.725
1106.91
982.951
2807.97
8523.72
1442.31
1277.55
684534
889.388
12474.7
73101.9
7391.02
371.826
1908.52
53361.7
2779.18
669780
4429.45
16193
646554
978.867
2115.5
2164.23
9351.77
646906
644202
141.349
472902
157.28
693.652
684138
8913.22
10941.6
6715.63
9066.31
591.679
5072.41
600639
141670
571.385
6779.68
2224.53
3145.73
152982
1673.33
767890
18146.3
9103.3
2230.72
365.96
63.0626
720.372
72.6822
10842.6
557108
703.072
5988.53
709383
514.41
555909
701153
636882
1627.93
1399.97
2888.09
9540.53
499021
8344.17
644.974
2439.21
5512.35
303471
3588.53
4536.98
1665.8
693040
572601
13021.2
3454.71
2677.68
544.135
30.7175
100242
185.186
28.7808
827.187
4434.56
2868.53
9285.27
90149.7
7311.86
3052.19
5066.06
4663.66
229.014
2071.2
39335.9
10740.1
1335.07
313.918
62347.1
8299.8
164.029
11914.1
725910
562312
3401.22
498469
684012
3954.09
69.5489
561829
7846.76
255.595
135.168
341.064
648044
548578
575120
3426.68
1043.23
536.14
2090.3
2570.51
208.515
24524.8
23975.5
379145
654524
6040.52
750.629
55.1055
593596
2216.3
4615.57
159.38
297.543
5916.81
359095
421077
5424.3
6181.93
162929
10148.7
4909.49
684862
152.327
7086.55
567026
703171
8359.96
564072
16328.4
539860
103.306
170.062
716.351
1771.02
939.309
694607
1518.73
38.6082
1748.62
4739.31
1282.4
98.444
7146.99
3389.25
5610.92
1595.19
646604
9552.5
734.127
1166.5
9940.98
80.3655
651424
159.323
6318.78
34.5406
3882.38
107636
44.3343
630959
596452
698859
31.4701
1584.82
330.768
11331.2
1828.5
639.526
3609.31
698549
80.8785
7632.5
5106.6
5554.42
2222.68
3735.68
535701
1670.45
377.794
161.625
5497.94
742.914
3750.75
386.43
164.25
1841.15
3696.95
16343.8
598.084
701040
17059.8
726.791
561.577
2687.32
522953
391327
667856
10716.4
297092
996.961
3957.99
503506
2518.76
686312
7117.89
1248.4
4662.16
2086.01
659976
851.998
2673.93
703178
692613
10482.1
687282
151.361
667873
7700.66
285.56
7598.14
15852.6
1010
276398
715513
1324.82
34533.3
1964.86
699883
649.203
1030.07
162724
119253
461069
454.094
703896
156.79
5559.78
1270.14
51.4317
453.142
453.796
25305
3584.28
4293.26
705849
7365.27
633989
426110
377959
18524.6
218302
16467.3
2561.42
81.269
660.968
1517.82
574074
2202.46
38.2328
265022
700642
19923.2
2434.12
10881.3
1745.25
1119.16
3853.61
165.312
1679.49
1211.34
699663
6177.16
6018.58
1396.33
70.1344
1841.93
136.552
3230.41
657706
59.8208
1748.35
11201.8
592816
573.977
43.0644
145.015
11542.9
17104
1706.19
7322.75
1069.32
1744.96
353.679
1438.81
28146.8
16297.1
4686.58
11705.9
3984.47
676630
9119.79
2511.25
18932.3
149904
687819
7549.96
1719.27
3787.02
257.919
2523.6
884868
869.834
3045.16
627991
826.205
811.661
811.556
358898
674242
706529
669073
729425
650.827
506121
3868.21
3919.82
24875.6
145.468
32454
109357
23355.5
649213
14186.9
445.155
10649.2
2524.49
6149.98
4391.43
683024
4545.84
3739.83
333.686
7982.51
10423.9
1344.47
658502
5029.04
494657
2104.81
103.819
721581
195.095
655289
1244.98
1244.29
278.076
792.096
1760.57
167.334
6229.95
758.811
9261.17
556.209
593.932
2093.13
1558.54
16.7678
659492
1602.44
1883.06
642738
133.626
1082.91
1826.12
1719.49
577133
22862.8
1442.71
14920.3
694086
106274
1015.7
3445.68
17764
12301.6
54.4379
517.493
648.534
2831.33
1946.37
54099.7
200.396
1102.41
2914.63
2360.21
591037
1190.63
408978
1686.41
686803
148.21
7395.41
447341
16415.6
28.7188
575474
639202
1337.3
329033
9798.56
9865.05
692103
3496.51
71762.7
431.546
7234.42
386.79
15.3951
1293.25
8838.64
730.321
714.765
691619
651287
9872.65
6615.17
412593
1906.28
1.18674e+006
156.189
7326.76
2074.34
520.668
700699
835.147
87113.2
1626.49
3083.77
6792.79
9709.26
505.792
918.428
145.723
9890.11
117.969
26103.5
699589
688100
1268.62
705876
1238.52
10099.6
3100.46
54.0521
1991.48
11049.2
2447.43
689.259
1100.93
1631.39
611180
683280
5046.37
153.041
660697
2290.48
10387.1
279.83
7178.89
2486.89
92.0548
157.63
129.258
704545
77749.9
9057.5
4142.36
731980
627.303
9002.17
2374.84
848.129
12089.4
731414
2109.31
35.2798
599267
11168.7
1.00778e+006
179.14
546815
536727
9104.28
3070.13
9568.98
604269
1066.26
32038.5
698670
1042.41
704486
686596
1454.93
697207
1650.93
637825
3962.81
7465.66
1331.3
2386.65
7910.13
184130
537727
7565.26
671.469
706243
2359.16
778.938
1356.38
972.741
701371
1700.37
345708
593422
2816.33
4962.53
3026.07
12709.9
27.3208
669885
84472.7
1201.13
668532
10738
13244
275717
1828.42
1986.23
8713.74
562340
659195
3953.88
695029
815.665
6341.67
21611.4
489703
3170.6
4241.38
7479.24
12427.9
1977.66
23506.4
2002.2
359.031
2908.38
13539.2
665178
583.027
696232
3024.37
742.537
1568.19
58.5032
8673.71
1675.57
3494.28
88819.1
1792.63
2883.5
511278
846.415
857.925
493094
3886.18
3845.75
11900.3
9111.6
700759
716473
2625.06
352294
13579.7
6119.99
140.721
4068.57
10143.2
12070.7
10410.7
49366.4
450.212
949.84
119.098
137657
157.998
431914
2828.25
5567.68
594.088
602471
11814.4
1802.69
343.808
324.244
2057.35
8025.38
30.7012
535753
1682.13
9271.36
554.475
185.285
301093
3732.25
693900
555333
7685.19
154.039
544.038
3509.61
100.878
3519.65
632996
8374.22
3978.44
9082.12
673258
145.232
85.5567
705554
3296.3
153.028
45530.5
1928.87
3979.87
127.599
8391.47
589677
12823.3
687808
227.066
695880
9830.79
12287.7
647597
5139.59
699042
9223.55
19027.4
718.575
140.695
1972.02
811.622
7679.74
134871
726589
671444
7564.69
169143
89.827
586337
1716.91
2434.56
7082.55
12849.1
8929.94
5602.14
457.978
3996.32
1866.92
72.5101
158.473
2890.68
2407.89
597.183
14367.2
28083.6
5058.26
5929.16
518418
2480.67
6001.44
3008.29
3875.97
644852
81122.8
637.965
144.648
12432
4533.57
1970.23
660910
16091.2
5243.78
2053.86
3000.2
709521
685664
1740.58
3705.69
2619.18
2117.83
5311.93
217.543
248.52
699251
301.482
8596.39
451309
7480.13
30611.3
675442
3508.5
577639
11331.6
1023.69
420356
38880.5
6113.39
682355
277.647
695221
695254
634004
375.062
718953
6905.86
9106.02
2266.78
1794.28
481.876
799655
727119
4308.14
643.268
2792.62
4152.58
691959
43601.8
11527
706564
536693
147.101
9815.02
687927
480521
3376.96
695440
13183.1
1694.67
1635.7
660709
6378.84
4346.3
704817
1978.3
7843.38
688532
95962.9
8004.95
703337
235.59
654496
220.977
11459
23440.2
8723.92
3363.12
947.728
3248.91
3300.79
4042.75
1774.2
399800
5312.49
4601.84
555119
825.49
7642.84
763.424
8736.85
38163.4
2036.21
91.3821
9026.22
10856.4
759.273
8144.78
2884.56
10146.9
6170.37
74.8517
582.368
178.749
704913
13070.6
23070.6
4905.67
429208
229288
715731
4024.94
7131.01
2470.51
6512.44
9606.89
14956.1
2243.18
1280.65
541049
295705
599.906
15226.9
1017.61
687907
341617
141.631
2032.37
47166
8750.01
713689
6234.99
2573.48
510.075
2095.7
704.781
270223
934.334
6799.77
506230
5321.67
15512.4
452304
15473.4
2233.88
7609.39
7477.91
608486
727535
3154.98
517954
729331
735270
294848
603735
1672.26
351997
2338.13
11065.3
57.2844
2207.58
11540.4
16129.5
3039.4
837.342
198925
2724.7
3475.27
283.691
466500
193280
2727.73
697423
1170.56
649173
717083
801176
627.912
11014.6
96601.1
1770.61
1742.28
5656.18
690290
8320.44
667475
591935
54.2561
76.3607
32.3295
43.2503
77.4015
58.988
42.5119
50.5695
66.9797
3596.9
190.583
319342
3005.27
221.066
292594
4594.81
7916.63
3729.47
11200.8
30116.7
457627
7403.25
9038.31
240.419
22010.9
333.88
16445.6
8840.89
11898
10055.9
1854.96
7800.91
577115
8843.28
10483.1
15015.9
33901.4
1922.9
10865.7
4174.99
75.9401
1042.96
333642
705073
304.094
3559.86
441.043
759.977
700.973
612.202
457.456
483483
573234
379270
558493
14953.8
427021
2698.11
124.239
4197.76
4872.65
4160.23
56.8901
156.38
11990.4
414766
150.6
3648.48
156968
1208.83
24950.6
1759.91
3754.61
126.977
14820.2
3532.94
978.469
653641
1835.06
11813.6
7948.25
132.964
606.982
2996.83
473338
703955
668027
1446.2
8081.53
4134.87
1908.55
2989.25
982.257
8536.46
715391
688530
4287.57
2843.34
571304
484782
126.904
705714
547688
897.075
6215.92
694626
574068
6968.95
1442.64
20210.4
531825
32748.1
7229.22
17969.8
9810.63
10542.2
668223
54854.5
161.499
662789
3043.79
16832.6
1545.84
64139.2
745.566
43.8838
5972.22
8595.09
13709.1
3243.16
691285
150.535
607144
606901
132.348
38143.8
578726
512151
649749
27104.4
745.091
3533.18
4317.23
179.626
991.977
7668.82
47583.1
8306
678576
341583
2369.03
1871.38
3798.9
555117
9755.61
168.682
542.87
2454.01
10831.3
527405
4314.77
6526.63
2740.1
5982.22
282473
2503.12
36.3008
420.564
176.344
684634
607423
2779.38
39398
622375
23461.4
630413
3687.08
404064
2895.1
660256
18072
12072.4
714270
238724
710539
2506.51
4414.13
4664.22
918.298
889.931
1508.91
7730.18
947.904
5555.14
7592.02
18730.7
7493.36
98085.3
549376
700477
9879.89
689710
708509
698712
4316.85
179.46
61206.8
643681
4348.32
3430.04
976.183
2889.76
1436.41
1330.34
4621.58
527603
631550
388353
44690.9
2482.05
2022.67
101.939
695503
246642
1233.7
1761
546244
3745.19
70388.3
612699
322.097
1458.62
1887.61
1688.45
3247.43
1047.74
32705.3
950.155
698776
7448.42
13956.2
699503
9409.68
536884
708472
711258
7902.17
693298
1989.18
170070
630214
222.727
7853.52
613111
199975
243987
11800.2
146174
2784.67
8900.48
1579.76
646.223
2910.2
51.0197
11600.1
3143.86
699.896
2378.77
8812.66
1438.17
35572.3
11928
4288.16
639.746
429.449
474.279
1027.94
63.3267
267.073
3082.66
930.625
17795.7
68742.7
7026.52
6151.18
215866
3145.62
6611.33
699820
696006
17607
516.901
9734.08
7879.39
362676
816.849
11090.2
828.448
10546.9
688.21
8423.56
12603.3
1533.03
9114.3
12795.6
3829.29
88.4268
717636
445774
2357.61
18753.4
8788.83
9665.02
688603
7180.56
572394
14176.5
28012.8
1767.06
3082.42
552.044
729583
10039.5
548393
13914.2
4057.19
629991
12859.1
181.712
698274
3893.99
616655
1030.38
670.143
7068.28
2134.78
633399
529.84
651.837
315642
35387.1
15509.6
219591
23891.4
8468.11
2523.52
7863.43
2292.03
4578.43
5707.7
461062
417599
721373
687277
645.652
1203.43
3168.5
103819
72.9111
234177
28.5138
744717
5577.26
813.954
580.084
8118.74
1444.78
30454.2
531866
174261
2027.61
406008
677146
2908.03
8686.64
12698.4
3886.38
38.6558
15542.4
703.924
3840.01
645812
604814
9897.61
187825
846408
16773.9
1198.42
109.554
4840.72
85599.7
371068
2280.7
3350.73
2273.07
4131.22
8401.54
691484
2178.71
620064
19334.1
4566.18
4865.14
800.562
2758.77
63384.9
845.038
9089.85
616565
14501
2221.45
10235.6
439849
539.922
548.241
12079.8
8042.26
828.681
25056.3
28743.5
853.731
595629
3419.26
842997
869.288
652763
88718.2
14931.3
7101.3
1732.49
614897
7202.81
575530
114.262
5579.68
6870.74
5294.9
614.927
10438.8
3914.47
2831.82
634739
577445
4539.61
234.375
634.702
1181.02
5482.74
600423
170.587
7819.22
610377
9647.8
7271.23
303513
614504
706.047
690979
10513.1
699008
16961.3
706.953
1484.81
10234.3
544870
1825.31
7434.35
10385.3
21600.8
6554.01
2993.1
383271
671963
2520.31
2836.53
4810.4
5799.86
395560
66517.5
576924
1799.64
832.044
10685
279668
48964.9
699.915
1.12952e+006
984.891
8674.88
706180
1666.53
121228
284678
10962.3
34.7123
76.7296
76.9562
43.1022
47.6375
66.1113
46.3034
53.8791
38.8854
53.1084
45.834
42.096
65.1064
32.1348
73438.3
10115.2
13824.2
4303.05
7459.64
1632.75
1497.2
193.189
615904
2752.45
845512
719765
22124.9
586988
1993.05
996.791
9425.46
77614.2
15002.8
504898
326323
147.237
729178
6271.96
1766.17
464412
7703.58
561069
832.257
293715
917.531
653547
571.162
659435
910.684
732289
1730.87
15680.9
26036.4
632756
3668.42
592261
694993
1179.82
4031.03
2003.54
7284.15
2925.52
330184
1513.24
691393
14310.8
12763.6
519800
147.015
671730
445637
597663
11780.8
2629.9
17733
9804.57
326074
703279
1903.02
591483
15406.4
700181
388.889
7694.18
13078.2
1462.69