/*--------------------------------*- C++ -*----------------------------------*\
| =========                 |                                                 |
| \\      /  F ield         | OpenFOAM: The Open Source CFD Toolbox           |
|  \\    /   O peration     | Version:  dev                                   |
|   \\  /    A nd           | Web:      www.OpenFOAM.org                      |
|    \\/     M anipulation  |                                                 |
|*---------------------------------------------------------------------------*|
|* OpenFOAM for Windows 18.02 (v1)                                           *|
|* Built by CFD Support, www.cfdsupport.com (based on Symscape).             *|
\*---------------------------------------------------------------------------*/
FoamFile
{
    version     2.0;
    format      ascii;
    class       volScalarField;
    location    "2e-005";
    object      rho;
}
// * * * * * * * * * * * * * * * * * * * * * * * * * * * * * * * * * * * * * //

dimensions      [1 -3 0 0 0 0 0];

internalField   nonuniform List<scalar> 
23640
(
0.00205114
0.00249699
4.81815e-005
0.594396
0.00367107
0.0165021
0.0034189
0.00775798
0.0101852
0.0175686
0.567888
0.00620669
0.00295152
0.00275775
0.0232422
0.0148999
0.000815816
0.420703
0.504193
0.0134621
0.551731
3.46017e-005
0.548862
0.546033
0.00579102
0.00478054
0.0789079
0.0181111
0.000447031
0.00285627
0.00228953
0.67138
0.55248
0.00830593
0.0131777
0.0218511
0.000908902
0.00124094
0.000161445
0.581052
0.00642
0.0109373
0.00371523
0.000139776
0.587951
0.0992314
0.00172761
0.0037696
0.0176365
0.00774436
0.605409
0.428459
0.019974
0.000884428
0.594029
0.0117356
0.0200222
0.00323019
0.00184981
0.590256
0.00220006
0.103523
0.594127
0.44193
0.00215567
0.439715
0.0120821
0.00536302
0.402277
0.00421044
0.591929
0.00805726
0.508405
0.000786435
0.0142861
0.664644
0.0117449
0.00287508
0.507449
0.591581
0.115864
0.029305
0.00174689
0.00175003
0.00213219
0.015736
0.426737
0.57157
0.517324
0.0240585
0.00227781
0.00412658
0.0163372
0.509167
0.42147
0.00489599
0.449202
0.0157038
0.0104464
0.0159366
0.0194624
0.000893934
0.545836
0.000563545
0.00996093
0.00115898
0.600132
0.000653748
0.0063375
0.00989348
0.00198094
0.509309
0.0092883
0.00632262
0.0561988
0.000325377
0.0235002
0.00183986
0.00183163
0.00341125
0.551478
0.581859
0.0170558
0.585091
0.035965
0.56883
0.619712
0.0346798
0.0165387
0.00567238
0.0265849
0.0198434
0.00310991
0.0504991
0.000589957
0.571587
0.563974
0.00559395
0.565856
0.463518
0.0103767
0.0203079
0.503402
0.568132
0.502475
0.00734749
0.575989
0.582001
0.00232456
0.430379
0.00788933
0.0165941
0.00181805
0.595447
0.0205685
0.000608064
0.00347271
0.00852597
0.0116058
0.0776495
0.0240551
0.0158192
0.0217334
0.0103835
0.00031327
0.000266425
0.598713
0.0687598
0.599881
0.0195148
0.0037843
0.0531326
0.0143288
0.0059797
0.598024
0.598386
0.00577112
0.057765
0.592234
0.00332297
0.588295
0.0100134
0.0055968
0.0146593
0.000512364
0.249098
0.03406
0.012767
0.590948
0.0161145
0.014421
0.570826
0.582107
0.00181209
0.000639561
0.578192
0.0100248
0.0209325
0.0139312
0.0541207
0.536904
8.56618e-005
0.00131121
0.0107817
0.51946
0.00206734
0.0137895
0.54994
0.0396242
0.598806
0.00299196
0.00521826
0.0041739
0.00209616
0.0169323
0.00827454
0.00401478
0.0132421
0.0109884
0.000113519
0.00449641
0.567715
0.537935
0.00627884
0.544713
0.0088791
0.00491208
0.583575
0.000121503
0.00228087
0.00217515
0.000582963
0.0107552
0.00503781
0.00838826
0.0292403
0.591352
0.00819277
0.00232413
0.109888
0.0212649
0.0535862
0.00639418
0.0111825
0.595099
0.000777756
0.00554391
0.0128699
0.591575
0.561903
0.589738
0.00477271
0.00173892
0.598206
0.001904
0.581509
3.37775e-005
0.000635396
0.598275
0.598778
0.59092
0.0019459
0.0188757
0.00668793
0.000398954
0.00394239
0.0564664
0.010838
0.00190346
0.41067
0.0125644
0.000243508
0.551586
0.591148
0.0351953
0.00840508
0.000529678
0.58238
0.442977
0.00584404
0.570151
0.000239072
0.241184
0.571956
0.0147713
0.103615
0.0101664
0.0230149
0.00303715
0.570635
0.00623367
0.000702831
0.00785272
0.010794
0.564692
0.00771343
0.00575883
0.000846539
0.00546275
0.00122931
0.0720106
0.44736
0.582205
0.00568311
0.559796
0.000295468
0.0221729
0.0713734
0.592288
0.505183
0.000559007
0.0305473
0.598042
0.506666
0.534864
0.0530586
0.0122255
3.77459e-005
0.427671
0.0153386
0.0022865
0.00834256
0.0135093
0.017368
0.00058188
0.02664
0.59299
0.00777685
0.00328794
0.629316
0.242243
0.00754884
0.0148845
0.022813
0.00655079
0.00594476
0.0125981
0.012098
0.0078798
0.0054369
0.0143973
0.478939
0.0200835
0.583813
0.572534
0.406371
0.0839809
0.00603427
0.00842066
0.0109015
0.599016
0.0238812
0.000619115
0.00182746
0.013307
0.000305506
0.00665566
0.0016101
0.594396
0.569057
0.0327346
0.556514
0.46177
0.00109036
0.0078279
0.000152157
0.000190511
0.0137687
0.507178
0.0032894
0.0435098
0.481784
0.000557458
0.536785
0.0348251
0.000615363
0.592086
7.25821e-005
0.00785679
0.057941
0.505109
0.477734
0.00818481
0.476819
0.00952445
0.000576213
0.0172204
0.000236263
0.578882
0.00024841
0.391591
0.0185017
0.0111887
0.0200471
0.0135781
0.561644
0.582079
0.00118713
0.00167157
0.0733394
0.00132675
0.598881
0.0209874
0.000269794
0.0029496
0.00477068
0.595424
0.000475134
0.0220289
0.0117134
0.0203604
0.591526
0.599108
0.0126332
0.576285
0.00615084
0.0974788
0.00371824
0.0167971
0.0104836
0.598454
0.395863
0.00530625
0.0203209
0.0202032
0.000300248
0.584549
0.0177713
0.558024
0.00862416
0.000555517
0.586516
0.597743
0.546869
0.0351645
0.573415
0.0461397
0.0239353
0.0881882
0.591953
0.0238812
0.594992
0.0217284
0.0173638
0.189033
0.0119351
0.0805821
0.0128973
0.546369
0.0138791
0.967234
0.0122392
0.598315
0.0186249
0.371808
0.00056595
0.00292273
0.0221976
0.598539
0.0152792
0.0164864
0.0145935
0.00883489
0.74943
0.0225854
0.00336114
0.021746
0.0122165
0.0156621
0.0147604
0.0252086
0.00521718
0.590438
8.41642e-005
0.00206837
0.107684
0.00318932
0.728818
0.0300699
0.617317
0.0109919
0.000422645
0.0143436
0.0174542
0.0241797
0.0357119
0.550421
0.000115396
0.00242656
0.00137011
0.0542872
0.615095
0.00264862
0.558791
0.00751387
0.00476063
0.0152517
0.223821
0.045151
0.00146899
0.0045352
0.586357
0.000296817
0.00673434
0.00549533
0.00188304
0.0126438
0.000494973
0.000678012
0.00294989
0.105586
0.00220905
0.015735
0.0158794
0.542611
0.00717685
0.00869039
0.000600736
0.0116781
0.577076
0.0210596
0.364867
0.974576
0.0232857
0.00295615
0.00937915
0.536148
0.0146822
0.507279
0.00181962
0.00523899
0.546149
0.036086
0.0203218
0.0137225
0.00377631
0.0197936
0.0176017
0.000669222
0.00711421
0.00946936
0.00538373
0.00776683
0.00529791
0.00116021
0.00336994
0.0229681
0.509598
0.00545421
0.00548232
0.101961
0.00497318
0.0126002
0.000111114
0.0837737
0.00346769
0.00590441
0.0512963
0.563201
0.59794
0.0074001
0.576379
0.00665912
0.055257
0.476047
0.546638
0.0142247
0.528398
0.0737105
0.0171932
0.940109
0.00298468
0.00745316
0.00103275
0.00175579
0.506332
0.0188321
0.0157991
0.0123125
0.00144995
0.585987
0.00878375
0.00161665
0.0149141
0.508943
0.521901
0.0086294
0.0118601
0.0045758
0.52943
0.592015
0.00601416
0.00624891
0.0114193
0.0018856
0.433041
0.0124194
0.0499866
0.00520181
0.0153614
0.575313
0.548238
0.598172
0.0328824
0.00300791
0.0132732
0.0191807
0.00189569
0.0075241
0.535098
0.00353217
0.00788429
0.00631041
0.00435045
0.0173169
0.0174282
0.0155547
0.00822453
0.00109975
0.586343
0.518429
0.00582719
0.00541379
0.592483
0.00325885
0.419254
0.00412973
0.539674
0.00487636
0.0220621
0.000180702
0.0109213
0.000652904
0.00329462
0.000123754
0.592386
0.00483277
0.00421836
0.00108873
0.0240054
0.0114548
0.0162352
0.57707
0.00293695
0.0101923
0.00880578
0.537806
0.0481055
0.000514697
0.00606472
0.0190117
0.584455
0.50207
0.00220892
0.0129011
0.591733
0.0455313
0.551703
0.00313589
0.00771513
0.0140522
0.0830369
0.000317431
0.0280987
3.4887e-005
2.23147e-005
0.00332748
0.584959
0.512087
0.0145891
0.58274
0.00934232
0.00493045
0.0229556
0.449938
0.00101053
0.0039346
0.00493745
0.00147383
0.586942
0.5896
0.00940311
0.00598816
0.000148836
0.00797519
0.000468139
0.594611
0.00745983
0.109527
0.582883
0.000441042
0.0117794
0.360744
0.0021698
0.353943
0.000637859
0.022171
0.00620241
0.567103
0.00888368
0.692879
0.444798
0.00929751
0.551808
0.000743539
0.00693243
0.579865
0.0126273
0.585369
0.0110847
0.512383
0.572151
0.0374178
0.000179566
2.26373e-005
0.0217924
0.0195084
0.00324676
0.54448
0.0217836
0.0150494
0.103779
0.0123765
0.000150119
0.0196781
4.25667e-005
0.00035994
0.000757902
0.00937539
0.595692
0.00634738
0.0013704
0.58818
0.57399
0.000775402
0.00840737
0.0171104
0.00625395
0.588805
0.0079626
0.00890618
0.00788794
0.589433
0.0318481
0.000529101
0.27628
0.00155875
0.453682
0.000478952
0.00376305
0.279661
0.000192139
0.00561757
0.00335549
0.00475149
0.730322
0.0542451
0.000668775
0.41876
0.587723
0.00177514
0.00184117
0.345607
0.00840442
0.595955
0.0152334
0.576763
0.0102545
0.483084
0.0195314
0.0234184
0.0123588
0.0894647
0.00934067
0.524287
0.00313062
0.599545
0.00955271
0.376828
0.0141713
0.0118495
0.588277
5.01527e-005
0.0148628
0.0159376
0.620941
0.04629
0.000461388
0.0140758
0.0093827
7.72942e-005
0.021726
0.494783
0.00500081
0.000219129
0.564681
0.00874341
0.591996
0.001214
0.581223
0.0120249
0.0216786
0.00720145
0.00199096
0.0134717
0.591185
0.0032551
0.508994
0.583612
0.00350044
0.0159194
0.540579
0.00449368
0.595518
0.0135601
0.0154067
0.00311656
0.457161
0.0234691
0.00651272
0.00947327
0.0128407
0.493609
0.019168
0.01998
0.582888
0.0282837
0.00169201
0.0120549
0.351084
0.00372323
0.0539596
0.000938768
0.449239
0.00909264
0.00646644
0.0157924
0.199229
6.89981e-005
0.00315325
0.450613
0.0159185
0.560384
0.00761947
0.000836379
0.000539899
0.595632
0.00375722
0.585994
0.0042917
0.00367277
0.00298031
0.0234484
0.00489803
0.494923
0.9523
0.0108899
0.0230136
0.0118293
0.0217346
0.01124
0.00197685
0.00471622
0.60065
0.1065
0.00281662
0.558873
0.00118382
0.584379
0.0228077
0.0311503
0.585943
0.594361
0.561557
0.713663
0.000456472
0.592691
0.123777
0.000595135
0.000241245
0.0113981
0.00281897
0.448652
0.00235308
0.0332869
0.0181198
0.591772
0.0270346
0.594979
0.00629781
4.92717e-005
0.0491578
0.00637725
0.0190618
0.583266
0.019131
0.011562
0.00943285
7.59767e-005
0.540984
0.533738
0.0142516
0.00366281
0.00238689
0.353658
5.33783e-005
0.0255534
0.0089085
0.0121847
0.000607794
0.0448408
0.000254368
0.0187481
0.0187892
0.593303
0.00459776
0.130696
0.599184
0.525798
0.584135
0.018384
0.480903
0.00295859
0.580022
0.000294394
0.0217942
0.00060041
0.00926688
0.0158869
0.664608
0.447177
0.508747
4.46814e-005
0.00919783
0.589867
0.0326762
0.0225877
0.00450802
0.00972809
0.588729
0.0146367
0.000174464
0.0153912
0.0167846
0.584927
0.0204339
0.58504
0.368816
0.000599276
0.00178815
0.00553477
0.566829
0.000832221
0.0214338
0.00231485
0.00276279
0.600299
7.67381e-005
0.0036404
0.000510897
0.00894511
0.00227467
0.520743
0.00325467
0.0061489
0.00915571
0.00436134
0.591734
0.00181596
0.00451186
0.549808
0.00181677
0.56981
0.00742416
0.0175372
0.00301263
0.00762435
0.021865
0.00638067
0.592151
0.0150181
0.00197181
0.00652417
0.00432532
0.00478142
0.509882
8.97914e-005
0.00321594
0.571762
0.503303
0.00269093
0.596047
0.00734721
0.00771763
0.587441
0.00850596
0.590989
0.00184841
0.00996334
0.0219698
0.018593
0.00320786
0.38026
0.016634
0.0237023
0.0951457
0.0330709
0.000608887
0.0123126
0.0162194
0.000333614
0.00560267
0.00130239
0.00328019
0.559504
0.020973
0.00779178
0.00311471
0.00992699
0.0132539
0.511285
0.585375
0.000129098
0.567643
0.02029
0.000539301
0.00282128
0.597683
0.459167
0.00458271
0.481411
0.0189334
0.00823432
0.0106561
0.000970205
0.00594593
0.0034017
0.0239451
0.00779107
0.00165994
0.00342246
0.584567
0.490099
0.00311019
0.000732566
0.0757905
0.00770733
0.108265
0.583926
0.00934367
0.00184492
0.0060245
0.586942
0.56501
0.511712
0.00456203
0.41709
0.00685372
0.0153126
0.0123591
0.0140726
0.53995
0.00105808
0.592387
0.00485436
0.00311054
0.000101136
0.0610283
0.23007
0.0188892
0.597717
0.000223851
0.0165253
0.139246
0.110762
0.00778571
0.0474868
0.00225124
0.00231304
0.566035
0.00279976
0.0199696
0.011643
0.177963
0.0121654
0.023552
0.0152703
0.51367
0.598232
0.00640634
0.0166121
0.00621762
0.00258247
0.0189934
0.0613896
0.00342074
0.00315946
0.00120271
0.0223299
0.00398519
0.00990112
8.17157e-005
6.98684e-005
0.595846
0.000617983
0.00608019
0.557142
0.000983648
0.00899865
0.121825
0.496809
0.0107518
0.00235858
0.0023372
0.00703184
0.00709739
0.0626521
0.26874
0.0123122
0.026196
0.599167
0.00284468
0.00233634
0.000482464
0.00102416
0.582343
0.00569571
0.0101528
0.00566364
0.586864
0.514752
0.0157991
0.0157823
0.598601
0.705479
0.000596312
0.00013704
0.00855476
0.0116781
0.000434722
0.445227
0.0129464
0.000312439
0.571688
0.0101695
0.0362378
0.595964
0.595044
0.000490907
0.156022
0.0221017
0.00120474
0.0040275
0.0077637
0.00855939
0.000681415
0.211579
0.463999
0.0265933
0.559486
0.00764421
0.0149292
0.446166
0.00139765
0.0210206
0.0184142
0.485145
0.515154
0.0133315
0.132704
0.014891
0.0154856
0.0187708
0.0138152
0.015745
0.0141979
0.00540813
0.516903
0.0127548
0.00543251
0.00162937
0.504791
0.523707
0.000467089
0.000718537
0.532715
0.111351
0.000307835
0.555255
0.00216539
0.47186
0.00425736
0.010317
0.00861044
0.00474035
0.00452375
0.000653311
0.942477
0.00866117
0.57581
0.00240217
0.014881
0.576693
0.00763237
0.000551658
0.0264177
0.0170998
0.56571
0.0137988
0.572473
0.000239239
0.00738823
0.00593832
0.00399609
0.0026073
0.00456294
0.00237228
0.283149
0.00315563
7.61452e-005
0.00199849
0.0171095
0.00498795
0.393748
0.565615
0.00563367
0.589512
0.270086
0.589225
0.0183828
0.0230785
0.00198213
0.485406
0.00400463
3.45716e-005
0.00397705
0.00467663
0.00168844
7.8529e-005
0.007558
0.0061356
0.0148167
0.013982
0.600017
0.0184561
0.00017261
0.00735134
0.432792
0.0108935
0.0120597
0.67482
0.0203725
0.0137542
0.000632367
0.0150563
0.0330805
0.00192574
0.00279477
0.00182745
0.0151877
0.577235
0.014985
0.474431
0.134249
0.0248894
0.00544145
0.00547189
3.28666e-005
0.000409042
0.00620766
0.592736
0.000146339
0.0158416
4.47576e-005
0.00748062
0.585516
0.189522
0.577417
0.0101734
0.00476171
0.0193927
0.406648
0.00638668
0.557747
0.0234385
0.003607
0.0013526
0.0025485
0.0195556
0.0131721
0.00587636
0.0236698
0.0168527
0.00497667
0.0142204
0.0473736
0.501801
0.00188301
0.00125861
0.00809637
0.00441346
0.00189282
0.0213624
0.00222241
0.00183201
0.00536604
0.964192
0.0152331
0.0141624
0.0129878
0.502017
0.565583
0.583585
0.00588758
0.0156917
0.0254911
0.536306
0.00329357
0.00320509
0.0011743
0.0115459
0.000331189
0.000525644
0.0170302
0.00028505
0.0221408
0.000434269
0.581687
0.0796281
0.0184045
0.00514361
0.00492321
0.0120115
0.00587393
0.599665
0.00588129
0.0693895
0.00480089
0.592688
0.59544
0.00045794
0.000178609
0.004258
8.36369e-005
0.00109544
0.0113017
0.0204161
0.55858
0.0193624
0.597116
0.0120723
0.00855536
0.00190698
0.0153523
0.0102136
0.65338
0.591727
0.0204085
0.0471047
0.0222574
0.0164076
0.507373
0.00299003
0.00397093
0.00813314
0.000203903
0.669396
0.00511854
0.596655
0.00166246
0.000490395
0.000463383
0.00924703
0.00637692
0.0138508
0.0134943
0.503211
0.592594
3.41076e-005
0.000424233
0.0085199
0.0107499
0.00199496
0.0950707
0.0139059
0.062245
0.0120536
0.0588558
0.581361
0.0763505
0.00556916
0.000995736
0.016239
0.0187147
0.0460672
0.00465715
0.0199243
0.0841487
0.0117063
0.112336
0.0109235
0.000433382
0.00926889
0.528158
0.439291
0.522028
0.000257143
0.577242
0.41863
0.0236462
0.009138
0.000463034
0.0190667
0.000255483
0.581479
0.00621587
0.00122129
0.00416514
0.0161945
0.00496471
0.571631
0.0109766
0.0499922
0.596925
0.0123917
0.00923166
0.0212318
0.0129368
0.0124942
0.0193436
0.00287636
0.00364937
0.00173318
0.014147
0.0010572
5.08192e-005
0.0180286
0.00099803
0.527259
0.000279812
0.00996679
0.00386147
0.0195753
0.0102943
0.00277452
0.00012726
8.5054e-005
0.00461197
0.540691
0.01679
0.00277474
0.591871
0.00300816
0.0100803
0.00510552
0.0122718
0.38255
0.0119988
0.588617
0.591574
0.00465654
3.89982e-005
0.737589
0.00254243
0.00752354
0.0274396
0.592436
0.00440111
0.0148536
0.0177103
0.00926356
0.00524989
0.0193372
0.0204667
0.5929
0.499629
0.00512738
0.40692
0.469272
0.000119002
0.0131531
0.468202
0.581504
0.592278
0.0236295
0.0039481
0.592352
0.0156426
0.0157173
0.00496055
0.453846
0.561244
0.000998042
0.00176296
0.00391656
0.0047389
0.437147
0.00433756
0.00273602
0.00943544
0.596119
0.0418615
0.00602952
0.594862
0.586656
0.597358
0.589506
0.000422539
0.0194378
0.526811
0.554412
0.00890235
0.0214296
0.00354063
0.0040801
0.45213
0.0112558
0.0442787
0.51139
0.00342982
0.595165
0.594362
0.598402
0.977801
0.00139001
0.00254827
0.00598449
0.00957141
0.204863
0.158697
0.000507901
0.000130322
0.022044
0.00875639
0.00378088
0.034723
0.0063348
0.595141
0.00908342
0.0052735
0.00475807
0.00019545
0.0185638
0.578106
0.0029938
0.00203385
0.592794
0.598636
0.0193873
0.00337877
0.00518153
0.0197563
0.00314033
0.00183992
0.0170269
0.0175413
0.575973
0.598187
0.596843
0.0115533
0.023034
0.0200392
0.595907
0.0103414
0.0141471
0.00813956
0.494407
0.0020566
0.58529
0.48747
0.0229893
0.0201308
0.00100427
3.25124e-005
0.538888
0.00872079
0.00550398
0.909679
0.00470836
0.0119767
0.0162063
0.595621
0.00565471
0.00456119
0.490782
0.00859367
0.0935868
0.00189834
0.518932
0.0217238
0.596253
0.00593483
0.0133051
0.0235035
0.00868759
0.428423
0.0227637
0.0047982
0.0142023
0.0376875
0.00755992
0.586185
0.0385475
0.438832
0.00888095
0.0158166
0.00178299
0.0084888
0.0702019
0.000274188
0.0157881
0.584256
0.422402
0.0234501
0.592404
0.0013739
0.0436608
0.00275039
0.23341
0.0019174
0.0119727
0.59516
0.59491
0.00227119
0.00937433
0.591793
0.000258847
0.015597
0.00906651
0.00434229
0.0101796
0.000432952
0.00326798
0.00935718
0.539086
0.0119346
0.0391966
0.585343
0.0350173
0.00017312
0.0093893
0.00394651
0.00932131
0.617189
0.0257127
0.600188
0.58693
0.00952992
0.00539128
0.00751798
0.596024
0.00143397
0.00419957
0.0154632
0.00500786
0.592607
0.000471748
0.0151355
0.0228247
0.600367
0.591852
0.0223106
0.574722
0.00058339
0.00333877
0.595756
0.470776
0.0146578
0.584606
0.000465559
7.71818e-005
0.00187609
0.0792232
0.0158378
0.00217547
0.479294
0.0023474
0.587617
0.00061434
0.00133589
0.00265103
0.000491588
0.707565
0.694973
0.00349997
0.493398
0.00509979
0.00435672
0.59499
0.00361458
0.0493348
0.00968854
0.00713068
0.00299179
0.00948151
0.000145792
0.51446
0.00461118
0.000419499
0.0327599
0.00632388
0.00267273
0.0233243
0.000292789
0.586227
0.00429367
0.593776
0.0194204
0.00731186
0.582158
0.592148
0.533384
0.00938715
0.543665
0.522219
0.0125788
0.0138875
0.89978
0.583501
8.78485e-005
0.00560886
0.541562
0.553385
0.00514859
0.592945
0.556858
0.599736
0.590015
0.000871062
0.000131195
0.0128188
0.00751916
0.0165641
0.0579309
0.534266
0.0159771
0.55126
0.00044357
0.000570099
0.00861719
0.474307
0.574456
0.0150168
0.00511202
0.562747
0.0024685
0.0154288
0.0172179
0.00145275
0.583884
0.00821422
0.58817
0.0722344
0.00976817
0.364678
0.0130781
0.0160498
0.00513862
0.83792
0.00807556
0.270266
0.0072927
0.00179558
0.0239052
0.593814
0.595799
0.000277235
0.00655048
0.434265
0.00950762
0.0280398
0.586344
0.363087
0.409709
0.0134057
0.000230985
0.519589
0.16685
0.588067
0.00423251
0.594961
0.445343
0.00267146
3.87142e-005
0.00211904
0.0480414
0.593629
0.0186159
0.403089
0.0192828
0.00225857
0.0142852
0.0792923
0.00361881
0.0157462
0.00537234
0.0157121
0.0199323
0.541995
0.0171864
0.0170731
0.58436
0.00354479
0.0130259
0.498004
0.0319896
0.0158241
0.00263802
0.00504956
0.0105409
0.00151737
0.00052869
0.0110113
0.582362
0.0129744
0.00044451
0.0137983
0.00304997
0.0157072
0.0096169
0.367705
0.101556
0.00789017
0.000689789
0.000237315
0.583485
0.0217737
0.00450864
0.00504031
0.493696
0.00310119
0.585869
0.591578
0.000173286
0.578199
0.600187
0.000960009
0.00416696
0.574775
0.014954
0.00394247
0.000159331
0.000203067
7.71462e-005
0.000114154
8.72158e-005
8.03873e-005
0.000208787
0.000141556
0.000183519
0.0110743
0.0551881
0.00356675
0.000436165
0.449522
0.00090824
0.898757
0.0031874
0.00047386
0.00804282
0.000128918
0.529203
0.000648713
0.0152377
0.0015681
0.0135407
0.0194871
0.000370096
0.581289
0.00625905
0.0100025
0.014576
0.0156105
0.109443
0.0096933
0.0112206
8.01726e-005
0.0140035
0.00542812
0.526705
0.0179037
0.0409065
0.596149
0.00394238
0.00494013
0.00341167
0.000151665
0.000506633
0.00330622
0.00567728
0.00225471
0.00119846
0.584637
0.01577
0.611968
0.00767095
0.41537
0.599527
0.00287336
0.601467
0.0353897
0.00676071
9.00728e-005
0.0635002
0.000466134
0.52923
0.595222
0.00267451
0.0028829
0.00304934
0.00235925
0.592348
0.475247
0.0188695
0.00689735
0.488344
0.00775625
0.0004884
0.541357
0.00294936
0.0198247
0.0130522
0.0138474
0.0321845
0.535925
0.00599387
0.0255954
0.00719653
0.00371707
0.366802
0.00917514
0.583492
0.588909
0.540579
0.566643
0.00464622
0.000351573
0.0094649
0.582659
0.0230555
0.0208207
0.00484333
0.00372576
0.11257
0.000101307
0.00069434
0.00925745
0.445586
0.0828929
0.0107178
0.495843
0.807923
0.00835947
0.0574802
0.576143
0.599128
0.500773
0.000582896
0.59206
0.0230933
0.0165515
0.450473
0.595553
0.00309934
0.00247708
0.0018692
2.7142e-005
0.00934308
0.0148147
0.00178839
0.00191093
0.0117497
0.555214
0.0144435
0.0255186
0.0712937
0.00328084
0.0220277
0.00237954
0.0148834
0.593274
0.0191253
0.0145952
0.00594227
0.0232755
0.00724502
0.0226113
0.0234647
0.529316
0.00203312
0.00761589
0.00313569
0.0012369
0.0237688
0.0536643
0.53512
0.473342
0.770004
0.00349666
0.587809
0.0047462
0.0180432
0.0022412
0.00151559
0.00632136
0.00186692
0.367026
0.015158
0.423257
0.00733792
0.0088279
0.00893627
0.0113142
0.590319
0.0185734
0.0149575
0.0014874
0.0146016
0.142561
0.0113688
0.00181197
0.0142869
0.0145486
0.0117748
0.0234413
0.597051
0.00589949
0.00493122
0.592916
0.596145
0.00550151
0.00799275
0.515802
0.057337
0.0653809
0.588431
0.504821
0.306319
0.000172201
0.015518
3.84164e-005
0.560834
0.000652854
0.0184431
0.0201434
0.0305032
0.018405
0.221782
0.0072783
0.0221015
0.594858
0.0192015
0.498682
0.0149733
0.505011
0.49276
0.0115973
0.00523828
0.00328719
0.0371668
0.00061123
0.00161574
0.00215899
0.00230431
0.0197056
0.0593458
0.00141659
0.00207676
0.0232036
0.00988886
0.00031531
0.0226863
0.0108842
0.00535634
0.425912
0.576694
0.0145726
0.0176408
0.336786
0.59411
0.0203724
0.420946
0.0116554
0.00944437
0.500563
0.595505
0.612947
0.00287998
0.0656318
0.554678
0.0182471
0.471527
0.410735
0.0126956
0.00109848
0.00161835
0.00445433
0.0126726
0.00827617
0.000423004
0.000478083
0.593645
0.595881
0.0080094
0.581644
0.0157062
0.00377275
0.0940853
0.0233116
0.0176428
0.595035
0.010296
0.016762
0.00249705
0.00284279
0.585156
0.00648829
0.57078
0.591698
0.00472427
0.000607281
0.00112228
0.00858133
0.514442
0.00250537
0.00851327
0.730934
6.76347e-005
0.553505
0.0038815
0.537691
0.0148958
0.139455
0.0556548
0.0070163
0.00248525
0.00872335
0.0233556
0.594151
0.0147004
0.00241921
0.0327129
0.00658294
0.125059
0.00506127
0.0100467
0.00185336
0.000720884
0.596515
0.532004
0.0125972
0.00866861
0.00909518
0.00836234
0.00930589
0.0158804
0.474817
0.000573663
0.0109228
0.435422
0.0047145
0.587491
0.0112051
0.00777542
0.0169558
0.597005
0.00915824
0.00301026
0.00226744
0.000315373
0.00950172
0.00663849
0.00920339
0.0139582
0.00143685
0.0115196
0.00111358
0.00229522
0.0118278
0.0199847
0.00244711
0.00627715
0.0144465
0.000612447
0.000617449
0.0113547
0.0019991
0.000905138
0.592057
0.00196931
0.00330836
0.595576
0.0235587
0.0162135
0.582308
0.596001
0.00945241
0.0226231
0.293265
0.596921
0.0236625
0.592403
0.603493
0.00883136
0.592247
9.0267e-005
0.0055885
0.000127597
0.00099485
0.0088747
0.116379
0.0148023
0.00770166
0.0141578
0.600278
0.00890607
0.000271381
0.00550655
0.00188198
0.00433364
7.87408e-005
0.00536327
0.00341379
0.000611646
0.0302417
0.000327629
0.575069
0.579177
0.0328533
0.000444176
0.541976
0.53736
0.414305
0.589885
0.00834279
0.00920744
0.0180635
0.0908875
0.000562425
0.0351607
0.0224509
8.69885e-005
0.00260089
0.00477708
0.00101089
0.00555882
0.000483143
0.00969457
0.59312
0.00526327
0.00363982
0.00309357
0.465979
0.0203728
0.0085768
0.581749
0.00654647
0.00504091
0.000572782
0.003704
0.00877286
0.102555
0.00580427
0.595224
0.591496
0.5935
0.000488967
0.200074
0.000360661
0.000304036
0.00694201
0.0138304
0.00460496
0.00731889
0.0182632
0.00329262
0.583161
0.00112589
0.0147395
0.000517244
0.592082
0.0030556
0.0199442
0.000413738
0.125105
0.00755305
0.00398139
0.595661
0.589949
6.03603e-005
0.594405
0.000530232
0.00367416
0.00234355
0.0075782
0.0151263
0.00451092
0.0032081
0.592453
0.00309178
0.0218118
0.0975757
0.0146115
0.000833737
0.00563265
0.074019
0.00760487
0.582672
0.00917684
0.0236469
0.568083
0.00235688
0.00590529
0.00564173
0.0192725
0.568404
0.565556
0.000423156
0.446441
0.000460299
0.00251636
0.593239
0.0191094
0.0201172
0.012379
0.0161665
0.00215794
0.0118144
0.535711
0.170494
0.00139378
0.0118102
0.00578464
0.00833005
0.1811
0.00385214
0.62124
0.0339841
0.0133709
0.00611417
0.00107158
7.16919e-005
0.0025041
0.000227136
0.0174586
0.50474
0.00252348
0.0139783
0.584301
0.00125745
0.504273
0.594468
0.560854
0.00447326
0.00439802
0.00700476
0.0162341
0.464823
0.0144844
0.00152672
0.00536708
0.0109175
0.314572
0.00751638
0.00928439
0.0038414
0.595882
0.516118
0.0198749
0.00805127
0.00738507
0.001476
4.89932e-005
0.13193
0.000556981
3.50853e-005
0.00199438
0.00851835
0.00627938
0.0192159
0.121829
0.0155002
0.00816305
0.00893703
0.0104741
0.000661266
0.00528303
0.0600883
0.0203371
0.0042399
0.000781636
0.0905929
0.0154877
0.000475236
0.0198686
0.594901
0.509588
0.00804784
0.464223
0.59197
0.0100885
0.000210404
0.508101
0.0118271
0.000673628
0.000394618
0.000819192
0.569194
0.500021
0.518536
0.00810889
0.0024814
0.00130942
0.00605097
0.00562076
0.000603366
0.0429692
0.0404108
0.374898
0.572595
0.0131936
0.00179344
6.28575e-005
0.531356
0.0063586
0.00942147
0.000459555
0.000713683
0.0123666
0.359406
0.406629
0.0111428
0.0126924
0.191241
0.0186107
0.00841559
0.592
0.000436783
0.0123039
0.512038
0.596101
0.0155244
0.509659
0.0231699
0.49345
0.000310079
0.000492681
0.00174101
0.00534259
0.003208
0.597218
0.00472267
7.6735e-005
0.00400306
0.011047
0.00414099
0.000294353
0.0146477
0.00890337
0.013103
0.00360694
0.568214
0.0148769
0.00176658
0.00382978
0.016846
0.000230461
0.570488
0.000457407
0.0142989
5.63947e-005
0.00891868
0.136156
0.0001406
0.556552
0.532684
0.595667
9.00807e-005
0.00363608
0.000972817
0.0156119
0.00535884
0.00228707
0.00846202
0.59559
0.000243303
0.015437
0.0108452
0.0124086
0.00568011
0.0075847
0.490621
0.00508443
0.00107302
0.000467424
0.0130708
0.00182827
0.00808053
0.00112375
0.000465835
0.00502731
0.00953348
0.0235143
0.00219855
0.594735
0.0228799
0.00154979
0.00157339
0.00645304
0.481492
0.384465
0.581554
0.0206017
0.309029
0.00259447
0.00836348
0.467605
0.00679162
0.59255
0.01187
0.00294732
0.00820738
0.00608054
0.577041
0.00298316
0.00738961
0.593597
0.59511
0.0188545
0.594075
0.000457804
0.581533
0.0153807
0.000744152
0.0134764
0.0266221
0.00273676
0.29332
0.592752
0.00425706
0.0562285
0.0057666
0.59613
0.00229185
0.00242787
0.191756
0.15049
0.437949
0.00082427
0.59481
0.000473115
0.0126926
0.00300495
0.000153679
0.00131996
0.00131712
0.0408446
0.00930624
0.0102263
0.593847
0.0146608
0.558687
0.412335
0.374627
0.0340978
0.243614
0.0284656
0.0065278
0.000236565
0.00161525
0.00470264
0.517624
0.00555445
8.04183e-005
0.284556
0.599758
0.0363654
0.00628927
0.0194678
0.00526994
0.00265708
0.00798596
0.000482618
0.00497609
0.0039289
0.598316
0.013432
0.01397
0.00436907
0.000116436
0.0055142
0.000400468
0.0078079
0.575348
0.000183657
0.00399231
0.0190477
0.530876
0.00215334
0.000134448
0.000435823
0.0235185
0.0311302
0.00465922
0.0144551
0.00332383
0.00473292
0.000900591
0.00335266
0.0407803
0.0242094
0.00954994
0.0222294
0.0100224
0.586914
0.0181417
0.0055121
0.0331661
0.182067
0.5939
0.015596
0.00469126
0.009624
0.000758426
0.00542146
0.715137
0.00302178
0.00816809
0.555643
0.00288558
0.00196316
0.00285281
0.359101
0.586235
0.594842
0.582202
0.590593
0.00162132
0.469954
0.00828619
0.00891742
0.0377965
0.000438884
0.0511921
0.137604
0.0411577
0.569875
0.0214117
0.00119716
0.0181915
0.00615885
0.0126205
0.00898012
0.591238
0.00864234
0.0096018
0.0010012
0.0168312
0.0195573
0.0042467
0.57611
0.0116938
0.460093
0.00534545
0.000312933
0.586193
0.000561244
0.573992
0.00285047
0.00404962
0.000761984
0.00222941
0.00476334
0.000447719
0.0144421
0.00183457
0.0164816
0.00130728
0.00146174
0.00550161
0.0047958
2.43805e-005
0.576736
0.00494286
0.00492944
0.565008
0.000398678
0.00359838
0.004178
0.00468801
0.519768
0.0371163
0.00402006
0.0243679
0.598384
0.130592
0.00246317
0.00899471
0.0332109
0.0208714
0.000137526
0.00199281
0.00166056
0.00759933
0.00443293
0.0763641
0.000416204
0.00365198
0.00666037
0.00483559
0.52875
0.00362285
0.397517
0.00498546
0.592833
0.000416996
0.0151273
0.426763
0.0224924
8.03275e-005
0.518225
0.562079
0.00313661
0.335836
0.0181657
0.0184672
0.59498
0.00908489
0.0969771
0.00116227
0.0142627
0.000873064
1.77215e-005
0.00304506
0.0157551
0.0026154
0.00257708
0.594739
0.570383
0.0156701
0.0151066
0.400196
0.00563788
0.959098
0.000454912
0.0133984
0.00596276
0.00145157
0.598318
0.00205322
0.112327
0.00373037
0.00658495
0.0132189
0.0186743
0.00195737
0.00315094
0.000437429
0.0183364
0.000339258
0.0433029
0.595778
0.594699
0.00272388
0.594531
0.00299679
0.0176398
0.0082802
4.44497e-005
0.00581615
0.0195981
0.00622537
0.00242847
0.00363776
0.00457052
0.543641
0.592653
0.0108744
0.000459892
0.576657
0.00653417
0.0199443
0.00074826
0.0161885
0.00624968
0.000269689
0.000470247
0.000388826
0.592693
0.103094
0.0193529
0.00873771
0.594887
0.00144392
0.0141861
0.00668332
0.00227691
0.0222544
0.592023
0.00515287
0.000109629
0.534656
0.0198592
0.814573
0.00053631
0.497896
0.491775
0.0151855
0.00755545
0.0162466
0.538455
0.00252245
0.0526816
0.59576
0.00280393
0.594726
0.594457
0.00337773
0.599541
0.0037929
0.562153
0.00906741
0.0144748
0.00313262
0.00527509
0.0161076
0.210164
0.49223
0.0158036
0.00161807
0.593466
0.00585088
0.00198003
0.00431872
0.00261229
0.59481
0.00390056
0.348827
0.530718
0.00657186