/*--------------------------------*- C++ -*----------------------------------*\
| =========                 |                                                 |
| \\      /  F ield         | OpenFOAM: The Open Source CFD Toolbox           |
|  \\    /   O peration     | Version:  dev                                   |
|   \\  /    A nd           | Web:      www.OpenFOAM.org                      |
|    \\/     M anipulation  |                                                 |
|*---------------------------------------------------------------------------*|
|* OpenFOAM for Windows 18.02 (v1)                                           *|
|* Built by CFD Support, www.cfdsupport.com (based on Symscape).             *|
\*---------------------------------------------------------------------------*/
FoamFile
{
    version     2.0;
    format      ascii;
    class       volScalarField;
    location    "2e-005";
    object      T;
}
// * * * * * * * * * * * * * * * * * * * * * * * * * * * * * * * * * * * * * //

dimensions      [0 0 0 1 0 0 0];

internalField   nonuniform List<scalar> 
23640
(
94.1512
67.4411
259.796
286.602
79.5886
148.225
71.9966
110.328
109.935
126.74
276.446
83.828
101.603
71.5498
159.988
150.938
88.455
252.827
267.546
103.599
273.864
179.182
273.526
272.95
93.2509
78.7021
160.788
110.892
84.3501
92.324
100.536
299.866
273.935
90.9437
105.581
155.566
88.3743
100.963
114.32
277.66
85.1515
111.334
81.0209
106.218
291.337
176.668
89.9955
74.3059
126.388
115.167
299.572
254.986
148.063
80.261
286.758
157.861
130.689
73.0604
61.852
292.443
100.201
173.687
280.705
257.291
64.3144
256.968
144.614
90.0038
248.203
83.958
279.377
90.2622
267.252
81.9883
147.04
299.768
190.86
101.315
267.942
280.237
184.74
131.244
61.3145
61.4252
64.0211
143.337
254.551
276.427
268.773
160.138
64.8954
81.5996
120.547
267.738
253.836
108.257
258.604
155.996
109.99
122.776
121.715
80.584
273.036
83.2466
98.3014
102.64
283.585
80.3628
84.0423
107.989
100.408
267.447
93.4577
84.7875
168.785
80.1602
160.934
99.7634
93.2984
95.8488
273.966
298.017
159.42
298.866
132.934
276.024
299.678
143.273
145.74
82.2261
123.252
119.038
102.995
144.614
80.9603
276.466
275.658
91.6855
276.16
260.962
108.951
133.207
266.533
276.508
266.37
99.1518
277.475
277.82
65.0757
254.355
118.992
163.341
61.9497
282.564
115.826
94.8633
72.2295
90.7084
142.051
159.055
169.978
137.367
155.242
141.614
83.1761
82.665
281.19
163.556
283.815
118.119
74.2317
166.141
144.956
82.7446
281.699
281.779
82.5267
164.545
280.359
93.8826
291.17
139.936
91.7717
104.978
85.4225
219.802
130.782
109.617
292.656
107.29
117.292
276.676
297.49
61.858
83.6951
277.241
98.3938
151.195
133.373
151.947
272.282
86.7517
103.82
111.313
269.721
63.3328
136.296
273.6
151.075
281.34
74.0349
88.9304
96.9542
63.7192
166.766
101.884
76.1025
103.107
127.853
87.392
97.5842
276.344
272.377
83.9617
272.746
92.3313
78.6913
298.537
94.3432
64.9324
92.7686
81.0087
97.9578
87.6672
90.351
131.961
279.282
101.824
65.1299
187.315
123.968
176.138
85.1648
111.651
285.691
82.843
113.302
142.834
280.625
275.062
292.903
78.5323
89.6229
281.793
62.2536
277.78
210.806
81.2784
285.296
284.866
289.587
101.498
118.788
85.252
86.2748
82.4044
148.179
113.433
62.2532
251.577
108.856
79.5952
274.06
292.531
142.297
90.9089
86.2088
298.082
257.675
82.1144
276.18
77.3811
217.812
277.056
124.473
175.467
120.249
158.102
69.4588
276.918
112.109
83.3096
100.602
132.129
276.001
103.457
82.3488
82.0655
81.6503
95.9395
166.49
258.257
298.435
88.7886
275.132
82.1398
121.697
160.839
288.325
266.787
82.3898
136.871
281.82
267.582
271.923
146.222
107.43
289.605
254.93
137.904
106.923
90.7778
106.136
109.64
80.7003
134.396
294.983
103.481
118.499
299.804
218.775
107.807
105.241
117.669
103.267
91.5464
132.845
107.365
103.349
81.4136
145.21
262.564
115.28
298.287
276.675
251.137
165.347
83.2586
91.4407
98.1407
284.65
131.46
80.8456
99.9496
105.688
83.4461
120.103
99.8267
280.659
276.492
129.34
274.751
260.648
96.9773
100.769
77.977
81.4792
112.368
267.965
96.7717
153.684
263.893
82.6679
272.19
131.74
81.0996
296.476
125.434
103.614
149.174
266.987
263.716
102.297
262.192
107.256
87.0716
127.418
81.6395
277.338
81.1801
247.991
159.68
185.41
142.577
113.403
274.909
297.844
105.904
88.5998
161.444
126.751
281.153
138.477
80.8521
102.555
78.3539
287.45
83.0037
132.762
138.54
151.136
280.55
282.912
114.752
277.537
83.9024
172.741
104.89
123.451
96.5781
285.1
248.857
80.9067
158.509
130.025
81.417
298.622
166.641
274.857
127.45
86.8285
292.955
281.094
273.105
131.085
276.781
155.744
154.049
177.825
295.987
118.778
280.668
159.109
130.359
202.311
130.044
164.448
110.176
273.63
113.058
299.998
141.778
281.969
152.968
243.716
84.1684
68.8045
121.304
285.557
119.671
122.342
122.572
92.0851
299.999
136.691
95.3937
141.86
186.609
117.592
117.764
120.948
110.23
289.822
91.7181
120.653
177.338
76.8032
299.957
135.697
299.104
121.937
84.2055
104.176
130.124
154.829
148.959
273.411
86.0832
101.663
83.8436
147.88
298.943
101.6
274.739
101.373
78.3004
117.654
215.992
156.982
103.606
107.104
279.355
81.622
95.8753
110.623
62.089
111.142
83.5665
83.3658
102.814
178.286
104.774
131.693
139.876
272.639
86.5698
91.8751
83.8685
112.336
277.759
158.53
243.252
299.999
170.707
69.2914
93.66
271.607
120.269
267.284
61.6045
80.0604
272.852
140.465
180.137
165.445
104.888
143.666
116.855
80.937
94.4779
140.848
110.177
102.832
80.8403
83.9134
78.4025
169.729
267.624
95.7042
95.8843
184.34
87.5767
171.667
87.5066
175.151
104.826
94.9029
176.353
275.583
281.719
150.798
277.128
94.4776
153.201
262.969
273.11
139.649
270.858
172.501
125.155
299.998
74.7473
101.509
96.4336
99.9464
267.836
160.173
141.457
105.82
88.7207
293.143
111.929
100.034
120.823
267.974
269.64
138.712
105.254
77.948
270.997
280.713
96.5091
84.322
111.671
62.1232
255.738
101.393
144.02
110.167
117.666
277.457
273.85
285.737
139.292
94.3523
130.501
124.009
106.28
87.832
271.375
100.179
118.9
84.4921
98.2739
147.542
120.545
160.012
102.398
83.9339
298.877
269.501
82.6577
86.2418
280.839
77.5048
253.302
75.363
272.568
108.434
160.019
78.8589
120.481
116.717
93.9207
81.605
288.354
108.22
75.6441
103.997
154.355
111.769
166.8
277.213
102.577
135.164
111.936
272.311
143.018
84.5179
83.3869
127.163
298.305
266.47
64.4725
102.209
294.461
157.13
273.606
103.016
150.529
103.638
169.539
79.4971
137.187
221.428
255.402
118.761
298.021
267.965
131
298.347
106.89
78.7621
138.742
258.909
84.6969
106.317
88.7053
83.7747
279.468
294.036
116.327
95.4973
95.6909
89.2273
81.1317
287.528
88.655
183.181
298.235
85.131
140.589
241.527
65.6591
241.337
87.8769
160.506
86.989
275.715
92.5623
299.967
258.055
93.6692
273.876
92.4517
93.5407
277.512
111.283
278.449
109.744
268.143
276.419
148.59
84.8942
227.423
162.984
153.869
70.3476
272.852
171.315
110.068
175.205
108.213
82.3347
114.154
280.807
82.7856
83.7994
95.2583
284.932
100.621
99.1668
279.428
276.773
102.481
91.1582
205.819
84.329
279.636
107.216
134.926
88.8967
279.749
145.556
82.601
226.439
99.6054
260.257
83.6568
104.761
224.992
81.4921
98.293
104.436
91.064
299.95
147.766
79.1329
253.114
278.649
100.663
61.7774
239.205
117.912
286.6
170.573
277.703
95.6377
263.546
113.675
153.081
100.624
172.453
93.4837
269.906
103.185
282.776
118.82
245.628
130.183
105.631
299.101
182.525
130.297
156.487
299.035
141.526
83.5209
104.517
93.9613
80.3061
148.472
265.118
108.768
80.6934
275.358
153.975
280.029
91.9767
277.776
112.439
135.096
100.157
101.174
111.718
293.806
70.4109
268.05
278.399
103.54
134.267
272.148
84.6984
287.567
128.95
121.124
70.1159
262.179
162.021
84.5469
118.112
195.389
267.078
112.41
194.875
277.928
124.556
102.002
107.435
239.927
105.349
146.545
101.62
258.64
93.1194
103.56
145.425
204.867
178.529
103.572
258.793
119.557
275.486
97.9994
102.445
83.9411
282.713
105.72
278.447
83.9
93.1157
102.74
144.346
114.78
266.267
299.997
120.423
123.181
112.238
123.905
110.762
95.2208
107.969
283.395
174.123
102.097
275.309
98.7008
293.903
157.566
140.095
278.521
280.477
275.433
299.993
81.909
292.83
192.411
84.1508
80.2964
104.157
90.3567
258.441
100.3
147.293
128.14
280.168
123.74
287.211
121.849
141.68
143.115
84.0137
166.442
278.159
114.084
152.244
138.89
103.158
272.105
271.797
130.528
80.4263
100.902
241.549
224.322
125.715
147.009
112.789
93.7887
151.356
81.4719
127.57
115.873
295.469
107.389
183.867
283.442
270.49
278.76
170.24
263.158
91.3053
277.528
82.5368
145.772
83.8646
116.974
132.27
299.613
258.245
267.552
297.664
94.9743
290.271
134.523
163.31
96.9408
108.56
279.877
144.669
82.004
130.764
154.101
278.865
129.481
278.458
243.778
82.3155
100.721
81.6718
276.267
95.705
172.308
65.2702
90.5611
282.723
126.026
73.3351
80.5329
96.3849
64.9862
269.773
110.388
83.3695
143.735
76.6322
294.346
61.421
77.6116
273.996
95.2227
276.58
109.122
143.981
102.877
89.498
168.491
92.0819
279.708
164.269
63.0704
84.6785
76.2267
78.7455
267.678
87.7
103.706
276.431
267.386
103.474
286.544
101.725
89.9593
278.576
116.727
294.385
61.822
107.923
154.422
130.411
109.41
246.526
108.244
172.246
170.569
137.771
80.6049
146.506
208.894
84.7944
111.005
104.281
71.1519
274.776
139.528
129.627
70.1196
95.2533
200.576
268.401
297.62
78.532
275.858
114.726
92.9636
68.2005
285.586
261.117
77.7766
263.945
113.875
116.658
97.1467
99.3679
110.542
104.063
160.435
116.41
86.5008
104.751
278.408
267.234
70.0845
92.4345
166.772
99.7615
178.041
294.328
98.4521
62.919
83.4581
292.486
275.628
267.924
107.713
252.666
100.991
214.462
100.544
133.158
272.117
97.7708
280.888
78.8882
122.609
88.5641
153.162
215.51
171.899
280.97
80.2306
128.648
198.53
187.112
102.892
141.655
101.211
65.4266
275.57
103.187
142.793
103.124
200.061
186.874
161.509
116.612
268.917
281.028
85.0957
108.382
97.8698
88.2608
127.553
168.268
91.3134
103.958
83.8621
169.7
75.0768
107.967
98.0305
106.655
284.325
85.598
99.1747
274.513
101.611
119.178
183.57
265.605
116.613
101.568
100.878
102.115
97.8664
157.791
222.817
137.77
122.258
281.407
102.661
108.23
81.7952
84.4132
298.689
111.12
95.4142
111.222
291.841
268.397
144.187
143.634
282.039
299.992
80.3362
80.7123
106.293
137.161
83.2488
258.091
134.502
85.4447
276.805
120.225
148.099
284.191
288.635
85.7002
193.166
138.921
98.2143
96.3414
126.903
91.53
83.971
211.509
263.772
122.668
275.027
88.915
129.457
257.002
105.065
126.52
113.159
263.947
268.56
102.362
182.952
117.701
138.663
115.132
165.54
128.953
115.637
110.148
268.782
115.074
91.4018
93.7645
267.346
270.211
83.8128
89.5218
271.381
189.011
80.4381
274.301
86.3611
261.306
105.456
144.656
106.7
91.279
76.5974
85.1432
299.998
124.754
277.538
68.7355
117.87
277.678
88.4717
82.657
122.73
136.432
275.672
155.654
276.96
81.4113
87.6561
99.0459
76.8728
106.554
77.6706
101.703
225.464
103.684
106.943
64.3991
139.09
108.396
248.566
276.009
82.3751
279.986
224.896
290.545
113.104
161.562
63.8042
264.518
102.972
297.173
75.0082
77.5507
99.1764
95.6567
101.28
83.3715
109.551
145.269
283.915
171.749
84.8516
99.1759
254.515
127.422
151.911
299.666
169.917
104.966
80.4159
129.579
129.917
99.4118
120.904
101.292
121.182
277.877
125.736
261.831
184.778
124.258
110.302
81.4366
162.855
80.7229
112.262
279.529
122.42
208.542
296.813
100.459
278.671
203.192
277.723
108.819
108.061
177.686
250.699
84.7979
275.121
175.546
104.25
86.7532
101.349
199.531
115.849
83.1259
163.81
129.913
108.638
151.08
141.004
267.009
62.1626
96.7171
102.442
76.2117
100.86
136.575
100.924
100.275
100.687
299.999
117.859
129.821
105.167
267.057
276.056
278.348
110.222
128.088
121.717
272.206
71.5421
72.6109
84.2315
100.927
82.6968
81.6428
110.942
82.9128
132.589
82.3425
277.744
185.961
111.905
91.9929
78.9361
123.319
82.9916
283.446
110.048
164.719
78.1391
280.316
280.712
80.2607
79.6015
106.599
92.7249
103.565
102.667
117.69
275.237
127.659
281.788
133.835
91.344
100.537
109.789
95.9909
299.875
279.497
178.004
151.7
122.16
165.152
267.128
102.908
74.8921
91.4382
114.696
299.941
96.5757
285.182
101.057
83.576
85.1561
117.56
84.2501
118.515
127.926
267.231
279.701
190.228
86.8574
117.803
119.689
100.525
171.853
113.903
165.941
102.115
151.588
278.507
161.216
81.8323
97.2321
154.479
132.217
152.15
78.0626
114.807
162.077
99.2936
182.676
113.584
86.9043
155.292
270.536
256.979
269.423
80.7205
277.766
253.271
163.096
114.201
83.4844
150.894
79.0397
277.804
83.9625
98.6942
75.055
111.27
90.9168
276.835
97.5012
149.132
281.732
139.566
150.484
153.521
103.514
141.873
113.526
103.159
78.8949
99.7604
132.665
80.7571
150.276
177.25
80.8198
270.656
80.9846
124.409
104.755
124.103
154.127
123.92
94.9963
80.8564
107.084
272.68
195.01
103.313
292.897
102.487
95.6212
111.744
114.66
246.69
182.181
291.014
293.049
78.1349
287.248
300
100.85
89.5747
135.734
279.672
84.3587
118.4
110.467
114.762
80.4639
165.323
118.191
289.806
265.999
79.5244
250.902
261.443
101.24
108.057
260.773
278.475
280.448
162.299
74.7135
293.355
143.824
124.175
79.2008
259.347
275.308
80.4862
101.089
74.679
78.5026
256.749
76.0645
89.1079
116.717
280.517
147.585
83.4567
281.824
292.095
281.729
293.557
84.7268
113.472
270.184
274.243
92.8763
120.911
72.8933
105.328
259.205
141.977
148.831
268.575
72.3239
285.738
289.03
281.823
299.998
98.6082
66.8808
87.7849
95.0332
210.375
202.662
85.1125
81.5567
129.822
118.826
79.2236
146.343
84.1536
281.024
139.873
80.6563
89.7908
81.4088
123.146
277.945
69.4214
87.6857
294.791
281.158
159.035
104.233
90.6419
124.914
71.8555
87.568
111.092
187.366
277.155
299.596
285.221
139.562
172.556
150.301
295.949
153.858
119.398
117.222
266.309
65.7453
278.436
264.789
136.493
149.533
80.5118
233.431
271.892
105.514
90.097
299.995
78.1893
133.275
123.272
286.909
110.033
80.4949
265.292
125.153
170.577
62.2602
269.225
116.267
284.415
86.4279
102.077
161.521
134.439
255.273
174.711
99.6637
115.575
133.416
89.9462
279.31
133.938
255.992
115.373
127.219
61.9497
116.547
155.026
80.2504
124.403
297.896
254.003
149.759
279.553
116.829
153.357
102.239
215.745
62.3781
138.933
281.396
281.002
100.806
98.1867
280.77
78.3558
106.487
92.9112
78.416
109.828
82.8077
71.3892
107.087
271.966
106.789
135.82
278.95
131.958
113.656
99.4741
105.886
106.722
299.332
123.259
282.886
297.576
118.845
80.6286
109.88
283.249
87.2974
106.298
142.009
91.8668
280.975
83.6928
119.069
157.38
283.212
279.655
138.03
277.343
81.4741
104.111
280.468
261.453
105.385
297.997
84.8285
95.9296
95.1427
162.154
122.645
106.068
263.917
87.6321
298.217
83.8683
112.763
90.1792
86.9725
300
300
104.748
265.339
91.0496
76.9038
280.216
75.5953
143.269
94.2713
95.2575
69.3955
119.009
81.1801
268.252
107.442
81.1366
128.873
112.1
103.152
169.209
82.5221
279.367
109.8
296.438
149.441
106.64
277.982
279.617
271.505
116.702
272.823
270.027
101.295
119.947
299.997
278.137
124.62
81.3341
272.604
273.939
96.3429
281.093
274.512
284.131
279.819
93.5406
78.4979
161.29
100.687
129.858
155.943
272.042
168.536
274.207
89.1101
86.6665
141.07
262.687
276.9
118.238
79.4687
275.599
69.0435
155.602
122.334
115.056
298.593
116.901
278.887
156.06
103.375
242.496
115.45
143.166
92.1276
299.959
102.165
222.43
87.1413
87.3149
161.826
287.104
284.972
81.1107
85.5562
256.231
136.249
124.162
278.509
242.995
248.193
109.019
80.5991
269.612
196.334
279.46
95.7872
287.534
259.254
103.385
239.611
64.9829
141.919
280.466
113.291
251.122
157.851
67.5243
141.466
160.412
73.4625
132.055
91.5197
118.433
175.13
272.809
136.176
150.644
278.229
102.94
101.909
265.709
130.04
121.995
102.445
90.539
98.7627
102.087
82.6363
121.468
296.231
128.247
80.5727
119.451
102.784
121.418
94.2037
244.084
175.994
102.34
96.4007
81.0038
294.904
142.812
96.8295
89.7561
265.946
70.2285
279.049
279.997
78.819
277.854
283.147
97.136
75.0373
276.866
118.263
104.949
80.5554
82.1076
127.467
78.3124
91.0155
154.379
80.0045
77.7115
79.9355
98.1215
147.448
113.629
83.912
258.82
97.4597
299.998
91.2247
82.2222
90.0174
81.795
271.114
83.0189
110.826
100.181
104.584
126.787
84.4895
277.707
95.367
94.4202
116.696
113.167
187
94.4949
97.9312
175.989
127.983
91.4048
270.104
117.991
148.172
281.614
105.58
108.463
104.207
91.9373
79.8177
103.574
82.323
64.8318
100.714
278.557
171.873
299.043
99.5691
251.88
281.698
93.1452
298.498
132.51
86.0467
123.485
161.264
83.5551
270.934
281.505
91.0495
70.1215
91.4684
102.067
288.162
263.668
128.043
86.5586
264.128
116.465
82.0285
272.187
91.1706
132.511
103.74
168.33
133.326
272.219
98.2646
123.744
95.6767
92.986
243.792
96.5156
278.794
292.785
272.648
276.325
88.6666
81.3402
94.0584
278.084
168.642
161.929
108.026
74.072
176.721
83.3171
88.2667
93.5005
258.405
164.25
132.238
266.024
299.951
141.253
153.644
277.11
281.509
266.718
87.2594
288.521
138.05
119.608
258.995
282.885
70.1831
66.4936
62.3995
197.236
93.588
105.079
110.121
101.159
142.225
274.006
146.366
138.062
163.253
71.1929
171.846
102.478
122.476
280.355
125.969
148.858
100.289
164.011
99.2382
117.251
175.625
271.196
100.982
99.3403
70.2281
97.1794
151.832
154.954
272.126
262.606
299.987
104.425
278.784
78.4737
123.414
64.5977
102.704
84.3685
61.9226
244.044
135.224
253.043
88.708
112.163
105.434
106.901
279.924
131.363
131.977
95.1718
140.697
198.132
154.999
61.8208
128.125
121.67
99.0241
162.468
280.592
86.3464
108.431
279.559
283.117
81.4399
112.12
268.601
154.253
154.628
279.564
267.656
230.816
94.5157
111.082
160.217
275.547
89.8581
134.415
119.553
127.56
113.114
212.605
100.664
124.409
280.125
113.683
266.717
105.906
266.778
265.555
159.99
80.0053
71.5299
134.242
97.2976
90.1345
86.0778
65.0043
121.465
164.405
103.252
85.8489
146.647
107.956
84.7353
190.873
122.013
92.7314
253.357
277.277
105.119
130.143
237.461
279.924
128.082
254.047
98.9847
95.3913
266.93
282.463
299.7
69.3101
155.866
273.987
118.56
261.65
251.838
106.385
103.288
99.7814
96.9579
167.697
117.875
83.5632
80.1612
287.313
284.376
105.575
278.492
118.647
104.081
168.851
172.624
109.873
281.964
108.547
123.773
101.649
68.8899
298.327
87.2299
276.31
279.364
77.8576
89.5872
92.0945
118.033
268.831
102.995
118.134
299.971
189.937
273.81
104.945
271.822
151.515
188.835
155.533
86.2369
102.432
93.3505
144.415
280.53
118.754
102.212
137.285
85.7375
181.375
109.028
98.3206
112.851
84.2669
281.596
271.35
100.625
118.382
92.6343
90.9157
104.998
158.111
262.042
84.3373
103.952
255.664
89.389
297.802
98.2752
100.721
131.193
283.261
96.5803
69.6841
101.275
82.9229
117.481
106.267
92.8873
103.599
93.1934
113.537
96.1533
101.582
139.138
149.234
101.828
83.6721
125.376
84.157
80.8282
98.288
85.459
97.4617
279.611
63.3486
103.853
284.596
119.627
135.888
278.647
285.953
116.932
128.869
230.145
283.138
172.563
279.469
298.008
112.342
290.273
80.2151
81.4474
80.8439
92.4327
118.779
182.171
143.095
100.59
104.248
283.52
106.442
83.5145
110.608
63.1874
76.103
173.256
95.317
103.093
80.9697
142.676
79.7162
277.02
277.963
159.305
80.6549
272.312
271.998
252.432
279.214
90.9056
107.823
135.308
169.596
81.6369
131.882
143.784
144.482
88.7811
108.207
96.8947
96.2408
83.9628
93.8138
280.846
80.0102
73.3643
70.3378
261.711
140.174
91.5908
296.525
84.9774
90.543
82.4255
73.5389
129.602
178.751
97.46
281.814
294.452
280.96
81.7194
208.461
82.9406
82.03
89.7628
128.996
107.873
88.5914
158.72
74.3168
278.135
91.8654
112.921
81.9767
295.851
70.0117
130.246
81.8129
180.768
88.4389
74.9914
281.843
294.146
246.391
281.557
82.6386
73.044
101.692
89.8373
136.624
77.5215
96.5519
280.138
69.745
138.666
181.642
122.643
108.129
82.1513
174.79
88.6042
278.701
117.027
166.029
275.946
100.697
86.8566
93.0082
117.649
275.94
276.17
80.9881
256.825
82.8445
66.8343
279.604
113.088
131.87
131.532
135.971
66.4778
104.096
271.84
201.465
99.3952
139.182
93.2378
91.5595
204.811
105.32
299.688
129.462
165.07
88.4581
82.8017
213.271
69.7486
77.5841
150.576
267.61
67.5506
103.871
294.357
99.1853
267.281
285.966
275.321
88.2351
77.1774
99.9649
142.487
260.293
139.673
102.427
110.19
122.417
233.898
115.754
118.48
105.139
281.986
268.988
158.846
104.035
87.9092
89.382
152.013
184.22
80.6117
198.887
100.56
126.219
110.757
117.156
179.409
114.373
90.6546
137.438
107.954
83.9685
95.0534
158.719
128.041
76.3447
97.3738
166.86
129.93
83.6835
145.386
295.848
267.54
102.467
260.34
280.152
95.0275
80.143
268.092
160.858
91.9945
83.048
100.944
276.041
265.999
268.911
102.457
101.933
99.2726
83.7555
110.88
83.7889
138.381
143.847
245.201
277.146
111.005
101.477
212.553
270.854
84.5077
118.778
84.0867
101.082
116.002
242.244
251.069
118.026
118.09
206.561
132.214
141.443
280.486
84.5552
139.644
268.492
286.003
130.562
268.34
170.863
265.257
80.7762
83.6894
99.7598
80.3716
70.9912
281.992
77.9693
121.988
105.909
104.016
75.0843
81.087
118.3
92.2952
103.823
107.226
275.903
155.68
100.755
73.8482
143.075
84.548
276.852
84.4513
107.142
148.499
105.543
191.668
76.4513
274.869
271.479
284.457
84.7024
105.676
82.4371
175.975
82.7281
67.7968
103.414
284.367
80.5965
119.876
114.163
108.529
94.8745
119.416
264.732
79.6567
85.3645
83.8352
101.983
98.5209
112.54
83.3744
85.4875
88.7939
94.0203
168.52
65.9561
285.791
180.779
113.701
86.537
100.968
263.332
246.782
278.434
126.118
233.089
93.1665
114.741
261.069
89.9173
280.819
145.389
102.697
137.725
83.1771
277.301
69.2457
87.7322
287.213
282.179
134.792
280.494
80.1614
278.451
121.389
93.039
136.698
144.374
89.4775
228.467
292.667
75.4528
148.906
82.612
284.652
68.6792
102.866
205.748
192.129
255.254
133.569
286.92
80.3493
106.203
102.481
81.1423
83.2346
83.5342
150.211
93.3808
101.788
288.182
121.804
275.134
250.554
244.611
131.721
217.263
140.259
95.1357
83.2921
99.2133
78.2542
268.896
96.1385
115.269
225.81
283.237
132.832
93.8367
135.518
80.2937
102.121
116.996
83.0481
81.8312
74.7527
283.523
111.501
104.455
77.487
146.04
80.988
82.6725
100.312
277.161
78.9721
106.178
142.586
270.743
64.6266
77.6593
80.6738
118.997
133.213
88.7859
122.824
78.0007
89.3893
95.2163
104.051
167.344
163.213
118.983
127.675
96.3897
279.516
121.881
110.459
138.401
199.624
280.796
117.371
88.8556
95.4052
82.4517
112.858
299.999
69.7917
90.3899
274.024
69.4201
100.242
68.9724
242.318
278.852
287.977
278.631
299.449
97.3257
261.113
113.184
106.575
159.57
80.3612
153.708
192.685
137.584
276.209
160.644
90.1551
141.932
99.3813
118.148
118.564
280.094
127.53
94.4342
80.8071
114.989
129.226
76.7589
277.129
104.27
260.669
95.4681
80.4367
298.452
84.28
276.794
105.895
74.4968
88.4805
86.1425
89.6132
90.6171
104.588
100.284
136.238
103.157
98.5136
92.2434
78.7929
166.749
277.244
78.6019
92.6181
275.81
81.2644
72.9652
105.972
88.9287
269.213
149.346
87.0113
148.453
281.231
197.307
99.9772
92.879
129.685
142.902
95.9725
62.9604
94.6911
90.3328
106.455
171.766
116.738
73.1889
106.1
118.34
271.016
79.6811
249.445
82.0138
280.886
86.1738
118.53
254.145
176.951
86.6827
269.239
275.722
103.371
237.543
130.779
129.517
282.032
93.3138
179.415
90.0225
122.98
107.414
210.625
102.971
136.018
67.7027
67.2457
281.949
276.845
152.754
106.17
249.965
81.9786
300
83.2438
132.583
84.3458
86.9669
283.942
98.6185
188.031
105.713
113.543
124.59
126.059
62.6512
70.6701
80.77
130.773
84.3075
146.155
284.701
280.534
112.921
287.862
100.202
138.816
90.7853
294.832
83.0176
136.693
95.3179
68.8145
73.3761
86.541
272.576
279.53
112.513
80.6832
277.789
84.9895
126.271
90.6715
107.518
96.478
82.7585
81.2725
80.5994
288.21
182.851
113.473
114.942
298.329
105.333
153.856
86.1534
90.3122
131.71
299.54
99.2479
78.0241
271.754
136.355
299.961
80.9853
266.276
264.617
145.361
98.5204
142.802
272.089
102.488
147.45
284.335
90.1364
287.201
280.034
104.436
281.95
105.533
275.091
105.962
125.05
103.038
109.696
119.065
212.421
264.865
116.064
100.614
288.528
97.7612
95.3809
76.1474
90.2832
285.89
105.693
240.286
271.1
103.902
116.271
100.833
138.12
104.873
278.683
176.795
94.4218
278.056
136.197
132.12
228.614
106.773
92.3887
165.285
267.645
277.288
95.4476
282.135
68.4795
105.106
149.229
259.193
102.583
98.4158
128.314
137.821
91.8301
162.887
107.16
82.3412
96.9639
138.046
278.056
64.4048
281.785
90.0731
67.5619
89.3299
80.8361
150.924
79.3447
104.531
178.813
106.418
89.4465
262.569
115.91
69.6895
259.424
117.812
116.432
131.09
152.489
284.275
298.432
96.9005
240.743
146.246
116.82
83.2775
96.8472
155.778
136.719
150.24
159.126
91.9044
101.375
82.7265
204.697
87.1826
253.073
110.818
143.073
99.9296
271.874
134.01
105.545
82.2338
80.6579
107.59
133.319
83.8007
264.93
79.4715
113.721
65.4257
84.0788
233.873
105.095
282.484
266.764
119.179
81.6642
93.3611
95.6682
83.1138
115.233
275.04
125.225
95.0983
131.824
278.746
82.9635
78.9457
289.352
113.754
84.0932
157.215
107.023
105.497
81.1497
123.688
270.388
142.701
280.089
79.5748
281.651
149.026
150.857
276.163
103.142
284.293
130.858
147.541
114.472
80.5941
82.6157
68.9615
130.483
203.171
297.402
278.862
111.913
208.485
82.4842
270.032
80.1432
99.0184
117.364
138.786
154.016
108.372
61.9109
105.136
90.8614
80.9087
81.4763
89.6187
119.376
113.67
143.849
162.916
104.819
109.408
262.668
96.364
106.153
90.3597
101.923
276.212
186.297
94.6149
83.7926
138.652
100.462
99.7578
277.735
174.619
100.826
83.3959
107.028
290.446
280.703
106.303
104.886
95.3962
95.254
104.335
82.9074
82.0741
283.44
95.6157
142.123
253.827
126.285
145.125
279.394
115.219
269.126
138.941
72.377
249.89
165.083
135.112
279.987
80.5373
281.571
282.984
275.081
101.132
296.031
116.004
116.678
96.636
96.9949
130.579
299.781
299.085
99.2477
99.2979
105.153
114.745
280.718
174.426
152.668
289.208
264.81
84.9021
141.093
281.042
257.909
92.2487
282.397
135.288
90.0812
104.262
277.483
108.596
109.771
289.261
82.6807
121.445
281.296
182.031
111.373
287.666
97.5254
277.174
92.8296
139.66
143.177
141.449
101.366
100.007
103.856
92.4574
104.178
90.1101
248.64
105.446
98.3144
267.421
69.0415
115.182
88.3562
125.471
159.713
100.917
79.7956
144
136.379
106.397
142.755
112.423
115.749
108.73
80.7815
64.3749
82.582
286.735
127.978
142.654
137.511
252.3
219.126
293.692
106.339
137.986
98.5218
133.25
129.928
161.622
108.643
102.558
265.183
231.536
65.0033
151.856
101.082
281.175
239.504
86.2226
107.126
168.648
141.592
293.174
133.37
96.6759
62.7744
83.3869
67.0102
226.83
101.381
133.835
261.178
133.085
125.966
254.427
163.074
108.878
125.111
126.606
272.667
296.918
104.506
262.541
296.234
299.604
231.579
271.875
105.951
240.936
109.624
139.128
83.0999
108.694
141.304
127.701
97.038
70.2217
213.341
97.6537
95.7338
95.5219
256.513
214.77
101.519
283.712
74.1978
276.262
298.489
299.709
99.2461
140.435
197.103
98.5565
80.1919
104.36
281.329
128.547
278.345
271.08
78.5435
80.774
79.8032
78.0283
82.6245
206.202
78.2247
220.866
80.039
104.126
121.023
235.708
90.1875
83.6718
232.238
119.466
116.101
105.357
133.444
157.143
254.682
124.641
135.827
92.9391
145.226
98.2279
182.613
142.044
136.865
134.242
106.529
128.636
269.265
116.911
127.003
157.619
160.313
81.7368
136.909
98.5839
80.505
102.282
238.182
288.574
93.194
93.5431
98.7321
100.194
99.6214
98.5342
96.2513
257.991
269.077
245.642
267.34
170.694
251.043
88.2054
82.1565
115.882
103.535
107.75
78.0554
79.4435
119.377
250.182
81.8546
114.605
210.324
116.949
143.658
80.9183
111.239
81.4799
149.936
102.144
101.422
276.513
105.884
142.863
127.13
79.9214
100.292
90.9069
257.722
287.979
278.492
78.4066
152.623
100.454
89.3974
98.5485
110.622
119.327
298.114
280.727
97.0163
88.5635
269.077
258.376
82.8246
289.181
266.081
71.3027
110.452
282.778
268.85
117.316
87.275
133.676
264.085
147.281
147.606
130.449
144.089
117.255
278.444
167.431
80.2842
277.514
100.979
127.374
105.152
172.777
85.5505
77.4738
116.133
120.754
136.506
103.733
281.858
84.8032
272.128
272.544
84.7274
162.374
269.343
261.818
276.606
149.006
100.319
110.425
116.528
105.035
73.6017
124.19
162.601
123.393
279.109
239.404
86.0712
81.7644
105.127
266.93
123.056
83.249
63.4739
97.6469
129.216
264.396
116.69
119.143
89.3158
110.956
230.992
95.4496
164.319
91.0237
84.8278
280.412
272.703
89.9493
156.302
273.887
147.616
274.754
103.757
248.53
99.8182
277.713
152.135
142.381
298.065
221.991
290.202
110.333
99.6588
118.921
70.5961
114.143
80.997
120.198
70.6056
112.494
121.119
130.56
122.542
192.83
266.723
284.062
142.961
281.431
289.559
284.253
117.965
83.176
182.292
276.052
96.8466
93.6552
91.2489
100.164
77.5455
100.059
98.709
263.978
274.644
246.814
155.703
87.328
82.4702
82.7819
283.029
222.599
115.391
105.878
266.49
116.292
176.796
272.603
81.5189
77.3755
106.981
79.7109
100.753
102.431
152.764
102.054
284.547
129.523
124.661
284.509
173.504
264.756
292.343
292.425
132.524
281.824
82.8422
206.832
274.829
83.0678
155.111
272.721
213.944
221.695
133.39
201.666
104.848
130.744
78.8705
66.2971
112.469
80.9847
118.741
91.2863
99.5415
86.1405
138.686
78.077
157.131
143.695
96.9181
99.2143
83.3939
103.866
93.9477
96.7193
96.4516
91.7309
101.489
130.111
175.94
107.552
111.271
216.779
90.9327
105.56
284.761
283.2
140.73
106.53
146.537
119.206
242.718
90.5898
119.883
101.303
153.663
103.323
170.569
130.557
95.2912
137.921
133.228
112.344
83.1247
296.52
254.448
109.679
142.505
112.43
139.161
281.161
128.905
269.191
151.73
146.915
87.3603
90.5102
63.7018
296.331
136.587
266.046
123.255
105.236
274.316
177.567
83.7524
284.007
106.448
273.104
97.1978
84.7571
127.786
92.8395
275.067
63.2071
111.228
235.228
149.195
164.052
217.074
137.58
123.714
110.482
113.474
92.4052
118.253
144.015
256.107
250.815
298.978
280.086
100.273
102.508
91.1574
184.713
77.4696
219.92
84.1373
299.522
108.947
100.655
87.0845
145.643
104.334
151.021
264.899
208.455
83.5438
248.127
279.54
89.3144
146.917
129.914
116.586
87.54
162.223
99.5668
105.89
275.91
272.46
173.601
210.52
299.93
128.815
75.2786
82.1832
122.209
178.833
243.883
109.019
108.717
95.1746
98.1203
139.893
280.812
94.3306
273.673
132.268
109.176
103.915
68.7877
88.0346
170.758
86.9754
132.183
273.529
147.122
88.2027
125.88
253.654
63.3994
63.6023
119.855
125.565
90.8898
138.977
148.635
101.051
271.129
94.3479
299.936
69.7431
276.935
181.769
170.115
118.605
89.3864
272.775
140.545
269.016
82.8772
113.997
112.803
139.966
101.055
126.699
111.711
111.854
275.184
269.141
130.163
92.1934
68.5263
103.025
112.157
271.884
81.2705
119.717
272.389
134.073
129.672
233.001
273.019
84.7921
281.753
139.012
283.269
141.276
89.7869
104.545
128.887
266.289
81.0431
124.872
153.325
143.503
114.499
108.015
245.885
278.495
87.5882
105.251
136.638