/*--------------------------------*- C++ -*----------------------------------*\
| =========                 |                                                 |
| \\      /  F ield         | OpenFOAM: The Open Source CFD Toolbox           |
|  \\    /   O peration     | Version:  dev                                   |
|   \\  /    A nd           | Web:      www.OpenFOAM.org                      |
|    \\/     M anipulation  |                                                 |
|*---------------------------------------------------------------------------*|
|* OpenFOAM for Windows 18.02 (v1)                                           *|
|* Built by CFD Support, www.cfdsupport.com (based on Symscape).             *|
\*---------------------------------------------------------------------------*/
FoamFile
{
    version     2.0;
    format      ascii;
    class       volVectorField;
    location    "2e-005";
    object      U;
}
// * * * * * * * * * * * * * * * * * * * * * * * * * * * * * * * * * * * * * //

dimensions      [0 1 -1 0 0 0 0];

internalField   nonuniform List<vector> 
23640
(
(-569.209 2728.92 0)
(244.236 2916.07 0)
(449.914 434.339 0)
(-17.0739 132.052 0)
(198.607 2808.99 0)
(-574.126 2074.9 0)
(-141.353 2835.45 0)
(-164.866 2570.55 0)
(-354.775 2676.71 0)
(2301.23 639.462 0)
(-34.1432 437.547 0)
(952.16 2578.94 0)
(302.503 3031.62 0)
(128.073 2867.43 0)
(-1442.89 1452.61 0)
(-449.506 2134.44 0)
(1103.2 2823.84 0)
(-119.309 1039.2 0)
(43.0305 732.891 0)
(-1432.14 2195.23 0)
(-85.8348 528.058 0)
(895.213 281.041 0)
(-82.793 541.18 0)
(146.413 538.874 0)
(-305.698 2722 0)
(302.245 2776.63 0)
(-100.599 2154.84 0)
(833.555 2382.29 0)
(1356 2813.23 0)
(208.376 2896.3 0)
(191.169 3172.09 0)
(-6.44423 9.30588 0)
(-89.9996 524.35 0)
(-1325.53 2347.78 0)
(-1854.99 1667.34 0)
(-1690.6 1227 0)
(1012.69 2718.17 0)
(1281.64 2923.61 0)
(1519.6 1019.02 0)
(96.3569 361.268 0)
(1428.55 2319.26 0)
(-349.777 2650.87 0)
(381.653 2774.49 0)
(-1861.67 1176.47 0)
(-10.0085 86.4247 0)
(929.812 1708.63 0)
(501.645 2861.26 0)
(801.423 2697.74 0)
(2290.34 626.698 0)
(-163.837 2554.83 0)
(3.05876 21.3285 0)
(-68.3067 1013.88 0)
(-1893.79 943.867 0)
(-725.476 2966.18 0)
(-14.9956 130.138 0)
(1640.61 336.458 0)
(-797.08 2055.14 0)
(142.413 2821.09 0)
(19.5836 2949.63 0)
(30.9943 95.8832 0)
(129.112 3163.93 0)
(-587.391 1914.84 0)
(40.0511 248.517 0)
(-62.228 971.841 0)
(247.687 2908.14 0)
(-66.9708 978.374 0)
(-336.895 2181.14 0)
(-331.388 2724.27 0)
(175.703 1049.08 0)
(404.069 2741.39 0)
(76.2721 282.155 0)
(-1281.61 2354.36 0)
(-147.222 718.605 0)
(-922.699 2877.14 0)
(469.922 2104.12 0)
(-7.03739 12.6053 0)
(-439.64 61.4126 0)
(372.892 3037.64 0)
(43.0028 722.021 0)
(-36.1501 268.923 0)
(856.221 1658.63 0)
(1720.45 1540.44 0)
(15.5906 2963.72 0)
(16.7229 2963.57 0)
(238.924 2911.57 0)
(-2051.79 471.506 0)
(-72.3932 1022.37 0)
(115.646 399.765 0)
(-177.068 659.961 0)
(-1328.96 1533.13 0)
(-261.861 2889.69 0)
(-24.9511 2775.2 0)
(-2006.22 1273.92 0)
(-122.947 712.993 0)
(22.1069 1040.08 0)
(49.7001 2937.24 0)
(-60.486 944.881 0)
(1942.27 607.373 0)
(-100.305 2485.63 0)
(-2121.16 992.958 0)
(2026.16 1136.04 0)
(-720.729 2968.25 0)
(148.564 530.517 0)
(906.955 3130.84 0)
(2025.74 1575.82 0)
(1369.8 2894.37 0)
(44.0289 161.516 0)
(-875.846 3023.8 0)
(-539.244 2676.97 0)
(-76.393 2579.68 0)
(328.842 3200.67 0)
(-141.909 714.381 0)
(224.516 2668.61 0)
(1454.4 2316.66 0)
(1658.51 1334.47 0)
(-1343.39 3013.01 0)
(-1498.29 1397.5 0)
(-470.711 3197.32 0)
(-629.129 2711.85 0)
(190.455 2872.29 0)
(144.01 493.483 0)
(4.99735 36.4549 0)
(1893.61 723.661 0)
(-1.03144 33.1709 0)
(992.185 2121.56 0)
(115.383 425.871 0)
(3.8154 18.6176 0)
(1827.47 1184.39 0)
(-557.889 2104.52 0)
(1379.94 2345.72 0)
(200.049 2443.1 0)
(1852.62 1492.35 0)
(246.403 3060.87 0)
(-685.217 2181.7 0)
(-924.294 3031.31 0)
(117.439 401.711 0)
(-69.6304 462.725 0)
(-315.11 2728.34 0)
(31.9007 448.73 0)
(-65.728 893.049 0)
(-101.656 2510.19 0)
(-799.481 2041.77 0)
(-155.839 735.58 0)
(-29.5487 435.364 0)
(181.106 731.486 0)
(-104.266 2681.03 0)
(-50.0951 390.269 0)
(88.3245 357.859 0)
(-296.594 2871.87 0)
(213.476 974.511 0)
(-135.165 2531.19 0)
(608.443 1888.69 0)
(-7.21362 2951.66 0)
(-11.2319 199.985 0)
(1397.65 2060.17 0)
(-1456.48 2923.48 0)
(-132.648 2842.45 0)
(-531.248 2621.89 0)
(300.98 2252.4 0)
(-76.7575 2141.91 0)
(-1282.71 1503.38 0)
(-2166.14 601.894 0)
(-1694.54 1216.3 0)
(-215.093 2273.53 0)
(1372.28 3064.53 0)
(1501.5 2909.27 0)
(57.2851 212.567 0)
(-1369.95 1457.25 0)
(42.4153 159.783 0)
(1883.73 1498.65 0)
(804.194 2693.97 0)
(1714.94 1264.11 0)
(449.262 2132.95 0)
(-595.637 2672.11 0)
(46.6184 207.871 0)
(-48.5894 206.461 0)
(1415.52 2355.18 0)
(1534.14 1143.74 0)
(-36.5371 264.404 0)
(64.2087 2945.57 0)
(-7.9026 87.553 0)
(1354.62 256.385 0)
(-315.377 2724.73 0)
(-909.524 2443.95 0)
(1312.18 2798.64 0)
(242.439 1497.43 0)
(-801.989 2250.27 0)
(-2134.12 1183.45 0)
(-31.8157 100.145 0)
(-892.133 2408.23 0)
(-490.011 2396.29 0)
(56.2751 422.738 0)
(-6.62533 41.6434 0)
(-6.63545 2950.5 0)
(994.463 2964.22 0)
(102.397 375.201 0)
(2039.66 1546.72 0)
(-897.573 1927.3 0)
(1774.35 550.681 0)
(1273.29 1760.97 0)
(-9.68133 593.501 0)
(1928.66 1293.31 0)
(1264.27 2882.91 0)
(-329.115 2668.7 0)
(-68.937 667.738 0)
(162.997 2911.44 0)
(1745.72 506.371 0)
(-87.0273 537.262 0)
(1834.78 1100.24 0)
(55.1746 211.35 0)
(142.875 2856.49 0)
(-356.096 2702.85 0)
(-73.4487 2768.1 0)
(198.719 2907.02 0)
(618.822 1879.01 0)
(5.04203 2667.49 0)
(825.865 2676.91 0)
(-1407.28 2206.86 0)
(-198.165 2335.56 0)
(-2435.53 1934.77 0)
(-177.104 2757.23 0)
(48.2477 437.805 0)
(-15.6323 589.98 0)
(984.528 2556.09 0)
(-145.694 548.677 0)
(151.291 2684.99 0)
(-381.659 2761.59 0)
(4.71076 34.8214 0)
(-2333.31 1761.05 0)
(-261.653 2891.85 0)
(-460.667 2744.94 0)
(-1083.25 3008.55 0)
(1420.73 2173.76 0)
(-370.462 2724.99 0)
(-508.637 2633.38 0)
(1727.64 1628.58 0)
(76.1866 286.714 0)
(-2.98486 2676.18 0)
(-297.387 2876.49 0)
(1008.28 1509.37 0)
(1985.02 1191.85 0)
(-1492.18 1397.14 0)
(1428.3 2320.46 0)
(-312.545 2636.3 0)
(-15.8666 143.58 0)
(794.748 2990.22 0)
(32.6616 2609.87 0)
(1959.02 433.217 0)
(-3.1611 260.493 0)
(127.526 463.755 0)
(29.6206 91.7933 0)
(842.916 2651.71 0)
(494.642 2863.28 0)
(47.1971 204.565 0)
(61.4865 2939.37 0)
(94.772 357.747 0)
(-1379.04 670.627 0)
(-1001.56 3027.96 0)
(-38.6501 144.794 0)
(-40.6244 148.947 0)
(-16.5012 102.476 0)
(742.827 3095.96 0)
(1957.99 1283.72 0)
(-465.261 2695.68 0)
(1554.71 2560.14 0)
(411.088 2754.08 0)
(512.855 2170.73 0)
(-129.5 2443.15 0)
(62.2712 2937.61 0)
(55.7672 1071.8 0)
(2254.99 921.24 0)
(1679.92 2681.23 0)
(145.693 493.733 0)
(-30.6762 98.9512 0)
(1853.56 1134.17 0)
(-1221 2398.62 0)
(1332.23 2795.81 0)
(5.51483 36.5671 0)
(12.6478 966.954 0)
(-653.035 2664.04 0)
(114.944 418.864 0)
(2226.06 2621.92 0)
(294.263 1506.36 0)
(-23.4543 412.307 0)
(-413.397 2267.04 0)
(707.626 1855.54 0)
(-95.7615 2425.04 0)
(1021.18 1756.74 0)
(-610.004 2788.67 0)
(-22.1988 418.297 0)
(-189.442 2838.6 0)
(-1056.51 2790.88 0)
(-25.321 2676.07 0)
(-198.429 2312.8 0)
(32.7008 455.092 0)
(183.008 2651.73 0)
(1323.28 2398.01 0)
(-886.371 2890.92 0)
(300.778 2743.84 0)
(935.022 2645.99 0)
(-1328.42 1463.27 0)
(-65.1827 951.442 0)
(3.8841 33.8326 0)
(-136.658 2717.91 0)
(-73.1943 482.667 0)
(1540.4 2887.56 0)
(1791.03 1577.19 0)
(-996.709 1882.81 0)
(-14.8457 113.738 0)
(-160.243 726.947 0)
(984.157 3038.91 0)
(1830.52 1226.93 0)
(-46.5998 207.314 0)
(91.1014 724.193 0)
(-33.9212 603.497 0)
(574.879 2157.34 0)
(-2133.95 1197.78 0)
(-592.12 475.442 0)
(22.2199 1019.32 0)
(-456.437 2199.87 0)
(628.155 2524.5 0)
(-1212.13 2423.33 0)
(-1872.04 1629.84 0)
(805.093 2404.12 0)
(-949.864 3091.7 0)
(-1994.62 1046.2 0)
(35.4151 114.173 0)
(-101.495 2660.9 0)
(439.37 2533.46 0)
(9.23673 12.7666 0)
(-328.27 1470.31 0)
(-186.777 2590.95 0)
(-914.737 2420.15 0)
(-591.353 2381.89 0)
(-311.453 2755.34 0)
(-161.492 2706.76 0)
(1559.15 399.77 0)
(2241.68 985.036 0)
(175.69 2587.24 0)
(299.787 2752.75 0)
(-1782.4 389.901 0)
(-186.429 824.918 0)
(1380.23 2079.97 0)
(-4.88598 37.5737 0)
(80.7793 415.162 0)
(-103.508 1072.25 0)
(-734.352 1943.37 0)
(864.621 2599.12 0)
(230.225 2682.62 0)
(1387.9 2211.38 0)
(-40.591 151.021 0)
(-2043.05 981.833 0)
(-979.474 2987.03 0)
(-443.38 3218.65 0)
(-1855.01 1668.66 0)
(1440.63 2983.65 0)
(54.4846 2523.19 0)
(-1023.44 2999 0)
(43.2272 248.396 0)
(44.6481 432.766 0)
(-747.105 2262.33 0)
(-57.3433 500.56 0)
(-71.8507 899.061 0)
(1028.52 2609.33 0)
(-18.6872 2680.48 0)
(2129.63 2365.58 0)
(1864.39 2759.91 0)
(2272.79 815.121 0)
(23.6866 722.821 0)
(-203.089 2876.9 0)
(-1744.13 1131.27 0)
(211.461 765.129 0)
(990.257 3043.81 0)
(-33.5442 594.821 0)
(995.865 2139.81 0)
(-976.821 2996.66 0)
(29.3525 89.0878 0)
(-2170.67 1539.33 0)
(-94.4917 2643.6 0)
(414.526 2197.24 0)
(142.913 728.063 0)
(214.637 776.132 0)
(-14.8061 2679.59 0)
(-179.223 836.203 0)
(-73.0137 2645.27 0)
(-1129.63 2886.7 0)
(-2102.16 1001.18 0)
(1612.45 3013.57 0)
(100.876 375.741 0)
(-1720.28 2602.68 0)
(21.9713 1135.91 0)
(-751.903 1933.64 0)
(-794.945 123.893 0)
(-1924.17 969.757 0)
(-1693.15 1727.18 0)
(125.512 471.772 0)
(-5.36167 38.798 0)
(1334.56 2982.33 0)
(526.696 2865.42 0)
(-922.881 1904.19 0)
(-1069.99 2200.05 0)
(61.6111 209.752 0)
(832.216 1989.23 0)
(1620.66 2786.52 0)
(436.473 3031.5 0)
(-293.455 2776.78 0)
(31.9988 125.301 0)
(1248.66 2882.82 0)
(1837.55 1319.19 0)
(309.259 2265.89 0)
(-887.096 1910 0)
(-5.94037 263.34 0)
(-44.3307 179.17 0)
(-552.396 2537.56 0)
(-45.5769 388.343 0)
(1340.37 2362.26 0)
(768.045 1843.71 0)
(-96.9363 3022.64 0)
(710.954 2268.13 0)
(1339.88 2269.41 0)
(-38.5387 147.092 0)
(31.7272 1119.96 0)
(403.637 2749.09 0)
(-870.474 1857.71 0)
(2256.89 736.728 0)
(-1513.76 2860.52 0)
(-3.13995 35.871 0)
(1831.26 779.027 0)
(-60.0339 494.642 0)
(27.0314 2446.38 0)
(1342.08 2688.24 0)
(15.137 75.1394 0)
(-57.9924 221.152 0)
(-90.8929 553.833 0)
(-20.5934 2390.37 0)
(77.391 411.221 0)
(-1683.25 1187.08 0)
(1605.72 1405.61 0)
(1201.29 1439.15 0)
(31.4216 99.1328 0)
(-651.516 2382.28 0)
(48.3235 244.661 0)
(1747.74 1098.49 0)
(-2188.3 635.499 0)
(-233.268 1707.56 0)
(-250.906 2319.25 0)
(-834.618 1910.28 0)
(2245.79 913.321 0)
(17.9539 546.111 0)
(2294.2 816.99 0)
(-0.151312 0.321142 0)
(-328.283 2221.95 0)
(45.0852 201.371 0)
(-751.275 1978.4 0)
(-43.9467 1168.12 0)
(-1048.22 3063.91 0)
(-573.48 2831.46 0)
(1792.76 1575.03 0)
(-39.2557 141.367 0)
(2233 844.662 0)
(685.868 2269.64 0)
(-404.07 2276.43 0)
(765.438 2575.71 0)
(0.0943421 0.0812135 0)
(1800.6 1286.54 0)
(189.376 2864.95 0)
(-1770.04 1240.63 0)
(1087.79 267.594 0)
(-2201.56 897.244 0)
(-489.318 2343.33 0)
(142.537 2466.69 0)
(-357.223 2864.21 0)
(-14.3501 99.9052 0)
(2282.15 1907.22 0)
(880.597 2308.68 0)
(-714.424 1821.84 0)
(363.956 2793.72 0)
(4.1764 4.0647 0)
(1849.77 1214.32 0)
(4.29535 48.0359 0)
(-172.619 2389.69 0)
(-1518.11 2448.96 0)
(-224.62 2594.01 0)
(-2212.35 658.056 0)
(1205.36 1680.54 0)
(1954.96 1064.38 0)
(-120.59 534.22 0)
(2062.01 1568.75 0)
(-172.53 3162.47 0)
(-582.031 2873.66 0)
(358.294 2214.95 0)
(-6.90001 50.6844 0)
(664.328 2971.68 0)
(131.276 474.246 0)
(-128.8 2681.84 0)
(-293.327 2779.77 0)
(-2034.73 1264.98 0)
(-397.708 1491.01 0)
(1816.38 1243.45 0)
(1192.16 2883.73 0)
(193.95 2945.37 0)
(-23.6158 310.666 0)
(-1541.06 2890.92 0)
(-141.049 2681.57 0)
(-65.0419 2899.69 0)
(40.8281 2943.4 0)
(-1746.29 1708.37 0)
(1132.94 3039.05 0)
(-1085 2836.26 0)
(532.154 3005.96 0)
(845.9 1740.9 0)
(644.209 2530.19 0)
(-2219.85 598.268 0)
(-2178.76 495.614 0)
(-95.3013 568.177 0)
(-578.666 2640.95 0)
(716.954 2593.84 0)
(1085.3 2998.08 0)
(-295.471 2581.15 0)
(-32.1525 380.939 0)
(-883.535 1872.1 0)
(11.8109 1208.61 0)
(-0.0684895 0.139995 0)
(-1423.22 1310.76 0)
(-559.672 2803.68 0)
(274.209 2662.92 0)
(111.787 599.348 0)
(689.541 2371.38 0)
(137.988 721.147 0)
(40.6141 2952.91 0)
(-353.296 2759.06 0)
(-141.729 546.672 0)
(1723.4 1337.38 0)
(-827.354 1656.57 0)
(-1679.43 374.995 0)
(-154.229 3000.48 0)
(-1934.85 929.927 0)
(1985.78 1259.88 0)
(-888.645 3020.7 0)
(1229.25 2373.5 0)
(-133.009 2278.45 0)
(-194.16 2892.41 0)
(-97.1139 2681.58 0)
(408.963 2742.78 0)
(583.606 2983.5 0)
(368.957 2788.59 0)
(-1373.59 1340.92 0)
(176.271 700.999 0)
(464.215 2778.72 0)
(464.332 2779.87 0)
(1080.56 1474.83 0)
(-372.531 2768.87 0)
(-1344.13 288.834 0)
(-2379.01 1763.74 0)
(1265.14 1421.53 0)
(-605.821 2902.6 0)
(284.838 2745.82 0)
(-1414.37 1466.23 0)
(-65.3905 466.787 0)
(44.3658 208.915 0)
(21.819 2313.91 0)
(-88.6245 394.115 0)
(-137.451 2682.21 0)
(1290.12 1734.94 0)
(-66.368 846.926 0)
(-85.7455 554.244 0)
(437.924 2179.19 0)
(69.0514 632.987 0)
(1372.56 1313.66 0)
(2209.97 883.395 0)
(0.292828 0.471246 0)
(151.519 2857.57 0)
(-128.957 2685.82 0)
(-1379.87 2798.08 0)
(-644.582 3164.5 0)
(30.259 725.927 0)
(1866.58 849.782 0)
(-2178.67 441.006 0)
(2116.35 1221.33 0)
(632.302 2851.73 0)
(12.6146 72.5011 0)
(-10.2621 2678.51 0)
(-1019.66 2996.46 0)
(705.88 2348.72 0)
(88.1814 714.618 0)
(170.661 639.459 0)
(31.0296 2357.84 0)
(2130.78 1218.53 0)
(343.948 2778.84 0)
(64.0273 628.545 0)
(-16.5272 255.89 0)
(331.667 2744.22 0)
(1441.02 2339.24 0)
(-283.852 2575.72 0)
(40.3448 2945.26 0)
(27.9409 1003.62 0)
(-1399.53 2238.37 0)
(-760.008 2146.42 0)
(-349.373 2875.21 0)
(-2206.26 863.592 0)
(-41.425 392.623 0)
(17.6256 538.836 0)
(-38.0948 139.78 0)
(1793.59 1292.6 0)
(-157.913 2951.21 0)
(2021.51 439.462 0)
(-1533.88 1785.87 0)
(789.118 2347.67 0)
(-507.379 2668.65 0)
(116.686 605.032 0)
(365.143 2882.09 0)
(-135.81 2526.91 0)
(827.863 2617.82 0)
(189.887 2878.72 0)
(-647.352 2069.61 0)
(-1606.48 1796.47 0)
(-1868 601.81 0)
(-12.3001 2676.4 0)
(611.791 2956.04 0)
(-1.40096 34.8763 0)
(-65.2573 674.424 0)
(1321.91 2394.29 0)
(-633.743 2601.89 0)
(-16.0985 251.677 0)
(-276.684 2878.34 0)
(40.6765 1047.02 0)
(1023.29 2610.62 0)
(-38.6041 581.588 0)
(-286.724 2914.96 0)
(1734.3 1142.92 0)
(1926.62 2328.87 0)
(193.105 2434.19 0)
(-1355.74 1794.37 0)
(57.4825 2938.47 0)
(-2281.3 1925.51 0)
(-16.9423 113.691 0)
(45.2842 2944.24 0)
(1059.89 2588.18 0)
(1229.6 2887.59 0)
(1597.79 1406.5 0)
(-287.449 2580.03 0)
(1819.86 643.592 0)
(-90.5583 388.93 0)
(124.031 3111.18 0)
(1577.42 296.461 0)
(-7.41575 2679.7 0)
(-39.0227 590.169 0)
(-865.489 2098.56 0)
(-1290.92 3229.23 0)
(862.508 2600.54 0)
(-1929.1 1299.42 0)
(7.14785 39.0468 0)
(186.622 728.844 0)
(-220.907 2900.88 0)
(-1416.23 2206.92 0)
(-33.136 103.724 0)
(1810.13 1228.25 0)
(-119.153 527.746 0)
(525.962 2969.01 0)
(-13.7424 2304.19 0)
(-203.181 2607.14 0)
(-1067.53 1720.87 0)
(-1355.56 3046.64 0)
(-1972.21 1021.07 0)
(374.656 129.809 0)
(-298.269 98.2335 0)
(427.787 2501.2 0)
(-8.20856 43.7796 0)
(179.032 689.976 0)
(-443.948 2237.48 0)
(5.12151 35.9142 0)
(56.8818 2603.75 0)
(-382.557 2754.78 0)
(-1587.07 1495.25 0)
(-5.84611 941.95 0)
(745.973 2906.57 0)
(-180.831 3011.39 0)
(346.053 2735.63 0)
(-494.399 2901.03 0)
(-23.2282 306.368 0)
(29.8833 89.3683 0)
(-7.04927 2680.87 0)
(276.79 2744.77 0)
(1734.48 1247.92 0)
(-525.486 2640.99 0)
(-1085.26 3054.52 0)
(-27.2882 122.886 0)
(-1510.78 2296.84 0)
(920.925 1638.71 0)
(-4.49308 36.7983 0)
(1367.63 2807.42 0)
(1379.99 309.775 0)
(29.9871 1194.49 0)
(20.12 2904.32 0)
(25.144 1234.96 0)
(1284.59 2714.36 0)
(960.839 1825.3 0)
(1421.76 2307.94 0)
(113.99 445.311 0)
(149.902 2684.27 0)
(-0.64508 1.1373 0)
(-6.03135 959.732 0)
(1450.72 2172.62 0)
(142.205 505.89 0)
(1038.88 3025.8 0)
(-529.057 2593.73 0)
(100.224 365.664 0)
(2096.19 1329.56 0)
(-83.8566 333.11 0)
(1700.29 1836.65 0)
(-121.951 701.928 0)
(111.308 409.487 0)
(1923.07 1045.05 0)
(-2147.11 2005.33 0)
(-767.513 263.133 0)
(-1605.18 1234.24 0)
(780.695 1897.52 0)
(-716.824 2756.28 0)
(-95.8052 560.753 0)
(1667.73 1103.15 0)
(1977.52 1462.05 0)
(-703.874 1851.53 0)
(2258.23 937.967 0)
(2277.27 2506.32 0)
(-1193.39 2211.24 0)
(195.501 360.203 0)
(-1592.5 2505 0)
(875.136 2993.8 0)
(-1839.77 1819.17 0)
(-15.2934 154.017 0)
(215.311 2710.09 0)
(-1227.86 2935.75 0)
(41.5683 303.116 0)
(-102.245 406.552 0)
(1657.64 3001.34 0)
(230.972 2688.35 0)
(1083.75 601.005 0)
(1378.48 2366 0)
(37.7522 294.576 0)
(51.7771 2665.41 0)
(-56.171 2349.52 0)
(-579.268 2623.4 0)
(35.6579 290.43 0)
(-1900.33 964.143 0)
(976.672 3087.41 0)
(237.035 1383.92 0)
(-1084.4 2945.6 0)
(231.922 866.201 0)
(1152.15 3030.86 0)
(-556.203 2821.76 0)
(141.27 1442.13 0)
(1857.69 2776.87 0)
(-435.358 2755.15 0)
(-634.697 2920.35 0)
(522.254 2788.81 0)
(4.22174 4.83217 0)
(185.6 2241.72 0)
(-793.004 2989.56 0)
(-64.0321 1049.58 0)
(85.515 316.771 0)
(-645.799 3171.17 0)
(65.5453 2946.55 0)
(-23.3052 1229.23 0)
(-28.9768 2751.18 0)
(-29.9919 131.676 0)
(1693.42 545.965 0)
(-28.0148 384.514 0)
(1054.3 2441.32 0)
(136.107 817.495 0)
(-1194.62 2224.83 0)
(1033.04 1794.89 0)
(572.708 2562.38 0)
(-1014.93 1722.52 0)
(373.699 2650.52 0)
(169.01 630.472 0)
(515.312 2998.56 0)
(-46.2749 180.228 0)
(7.31384 2694.67 0)
(-0.938119 1178.85 0)
(-1888.17 471.154 0)
(-2154.11 1198.14 0)
(1.21502 31.8392 0)
(1227.45 679.084 0)
(-1881.57 512.476 0)
(1936.64 645.915 0)
(8.37407 55.3374 0)
(-904.093 2096.35 0)
(1107.01 3043.95 0)
(-1045.19 2384.88 0)
(93.6824 2669.48 0)
(2390.18 1898.14 0)
(-1747.79 1201.71 0)
(180.385 765.011 0)
(-245.969 2907.21 0)
(2120.9 2250.74 0)
(116.471 457.698 0)
(-106.957 2181.59 0)
(-49.0625 273.297 0)
(873.449 2700.24 0)
(-98.1531 359.094 0)
(-260.142 2481.1 0)
(-951.084 1986.03 0)
(-160.063 2696.49 0)
(329.847 3207.4 0)
(2295.08 862.057 0)
(35.3639 107.247 0)
(-715.831 2758.01 0)
(80.7627 713.636 0)
(-59.6709 343.388 0)
(-598.845 2884.26 0)
(-2178.57 636.715 0)
(150.455 566.898 0)
(-400.92 2793.08 0)
(33.0965 124.611 0)
(2122.94 417.259 0)
(663.661 2317.71 0)
(-282.484 2844.04 0)
(-234.838 803.245 0)
(-1410.31 1446.15 0)
(-652.754 2674 0)
(32.2254 2694.86 0)
(520.169 77.318 0)
(206.257 690.705 0)
(770.089 2400.91 0)
(1347.93 1009.59 0)
(89.9862 351.948 0)
(351.983 2414.92 0)
(1056.95 2963.27 0)
(2234.22 987.247 0)
(18.3672 1215.54 0)
(-520.924 2932.2 0)
(192.548 2252.5 0)
(1181.09 2951.69 0)
(42.3435 944.511 0)
(351.291 2657.61 0)
(355.031 2766.05 0)
(527.492 2104.37 0)
(-186.07 1688.2 0)
(-1753.45 1470.16 0)
(-580.212 2970.66 0)
(55.378 939.719 0)
(-491.589 2219.33 0)
(-3.08565 477.757 0)
(512.72 2566.99 0)
(1599.74 2830.39 0)
(-1147.83 3032 0)
(-11.8717 196.449 0)
(-512.928 2928.12 0)
(88.6344 325.377 0)
(258.605 2738.84 0)
(-199.112 2855.5 0)
(-92.7704 3119.97 0)
(-1567.88 1464.39 0)
(168.798 2612.37 0)
(-23.1809 768.787 0)
(0.180089 0.556783 0)
(195.533 2435.04 0)
(-1755.98 1548.02 0)
(-278.234 2518.57 0)
(-2007 1219.89 0)
(1690.75 2091.67 0)
(575.117 2785.72 0)
(-411.518 2831.49 0)
(47.3168 160.547 0)
(-489.592 1940.52 0)
(477.035 3081.26 0)
(-1.75146 484.378 0)
(-1332.05 2963.37 0)
(-9.53887 66.0153 0)
(1698.85 1262 0)
(-1913.82 1093.15 0)
(-84.3773 328.379 0)
(48.2906 252.675 0)
(-56.7979 474.616 0)
(0.585497 0.720666 0)
(-1364.17 2735.69 0)
(35.6968 114.977 0)
(-952.064 1445.61 0)
(909.689 3114.3 0)
(-1747.89 2602.82 0)
(-2132.38 1228.53 0)
(0.934537 2904.89 0)
(61.5032 945.952 0)
(150.285 3191.39 0)
(-1881.93 968.687 0)
(706.171 2140.53 0)
(-38.9721 271.396 0)
(397.821 2408.55 0)
(-27.3944 125.753 0)
(-9.51405 2492.63 0)
(1487.12 555.9 0)
(-563.721 2247.86 0)
(-852.058 2604.48 0)
(-1795.12 901.004 0)
(-98.1321 334.609 0)
(1423.13 2079.88 0)
(1442.5 284.509 0)
(-123.424 2296.6 0)
(-2199.59 1363.5 0)
(148.392 568.668 0)
(-28.4171 608.117 0)
(1716.23 654.514 0)
(391.901 2768.81 0)
(147.604 3187.99 0)
(5.2093 1205.41 0)
(810.558 659.68 0)
(1675.05 1711.03 0)
(-86.9292 2234.84 0)
(-266.765 2428.47 0)
(-1461.46 2933.93 0)
(-1690.92 1278.76 0)
(-1727.38 2580.28 0)
(2288.12 685.959 0)
(-1748.49 1658.17 0)
(35.5624 111.5 0)
(312.445 2919.56 0)
(416.237 1866.75 0)
(-42.6836 169.714 0)
(-70.0588 644.209 0)
(42.3286 331.973 0)
(-778.002 1830.95 0)
(-186.172 812.207 0)
(93.1741 2894.78 0)
(98.6659 366.08 0)
(1546.23 2894.61 0)
(1856.25 1104.48 0)
(1093.64 3002.33 0)
(-21.3106 2713.2 0)
(-2181.61 645.955 0)
(-0.691497 17.8104 0)
(47.3464 951.974 0)
(-128.875 717.107 0)
(-194.281 498.418 0)
(-1839.93 1838.3 0)
(-14.2171 96.2298 0)
(1617.08 1693.23 0)
(-1523.57 1286.96 0)
(324.207 2790.15 0)
(87.7104 2573.87 0)
(19.8134 288.264 0)
(-2034.87 471.132 0)
(1936.13 2683.57 0)
(2086.95 568.798 0)
(-639.485 2000.62 0)
(39.6348 328.36 0)
(987.785 1983.43 0)
(-77.6504 335.576 0)
(-59.5685 1164.56 0)
(938.809 3020.37 0)
(904.849 3027.11 0)
(1347.81 2380.6 0)
(47.4222 442.008 0)
(-1512.18 2856.44 0)
(-1546.63 1155.58 0)
(-310.227 2882.16 0)
(0.00985569 2935.63 0)
(47.9654 175.179 0)
(1578.84 630.953 0)
(817.484 2716.17 0)
(-1028.67 3053.11 0)
(-1952.77 1641.5 0)
(-193.023 2897.32 0)
(-80.1975 664.317 0)
(395.615 2573.29 0)
(-878.99 2600.34 0)
(-66.8054 2290.4 0)
(920.547 2639.31 0)
(-32.486 100.933 0)
(93.7742 2948.55 0)
(453.059 2766.12 0)
(22.6429 533.263 0)
(632.674 2827.56 0)
(53.4024 427.728 0)
(227.839 2724 0)
(2048.61 742.051 0)
(540.061 2988.55 0)
(-1706.25 2060.06 0)
(-1585.19 1194.44 0)
(648.837 2602.43 0)
(60.8956 278.701 0)
(-1812.42 529.735 0)
(129.361 2929.74 0)
(-592.748 2681.36 0)
(976.281 2613.75 0)
(301.734 2775.27 0)
(141.143 709.46 0)
(1848.86 1206.38 0)
(709.914 2867.97 0)
(-106.219 418.506 0)
(-31.3041 738.483 0)
(-461.666 2620.06 0)
(-28.6256 132.638 0)
(216.652 2656.25 0)
(-1691.42 2066.06 0)
(83.6411 321.201 0)
(-9.50207 2755.03 0)
(33.9846 101.971 0)
(20.7742 2947.18 0)
(-116.846 2592.38 0)
(951.939 1852.23 0)
(707.222 2096.36 0)
(385.992 2593.61 0)
(5.78356 1163.85 0)
(-871.929 2419.35 0)
(-1260.97 1499.74 0)
(-665.979 1916.84 0)
(-1786.51 1324.95 0)
(-960.435 2999.04 0)
(-1514.1 336.632 0)
(-1103.09 531.48 0)
(1726.7 2487.69 0)
(-111.011 2890.67 0)
(1281.65 2915.46 0)
(-173.33 2843.26 0)
(128.725 474.93 0)
(849.048 1984.53 0)
(-101.665 2481.53 0)
(-364.466 2845.13 0)
(-1382.45 2287.91 0)
(630.695 202.162 0)
(79.1323 704.242 0)
(12.6335 48.4412 0)
(2223.56 2321.57 0)
(115.038 438.695 0)
(986.804 2286.26 0)
(1674.93 2502.43 0)
(-516.01 2820.76 0)
(-36.901 142.759 0)
(-229.802 842.281 0)
(738.794 2693.16 0)
(-72.5826 822.561 0)
(1387.34 2088.26 0)
(121.186 2514.67 0)
(1346.1 2259.35 0)
(1201.43 2960.07 0)
(309.847 2798.07 0)
(-67.1649 3063.6 0)
(-1312.91 1565.04 0)
(35.7707 2769.78 0)
(-509.605 2808.35 0)
(-336.428 2679.66 0)
(-75.0492 339.728 0)
(196.667 666.915 0)
(-282.241 2841.68 0)
(1025.84 3029.71 0)
(1190.14 1639.72 0)
(1220.31 2481.25 0)
(746.096 1809.64 0)
(-8.97739 62.9583 0)
(-1948.39 1625.05 0)
(66.6343 2948.45 0)
(805.964 2628.87 0)
(16.4093 79.0781 0)
(-120.396 446.99 0)
(137.488 702.421 0)
(-430.283 2831.63 0)
(-67.2609 1057.66 0)
(282.676 2665.91 0)
(-1071.61 414.171 0)
(572.234 2561.6 0)
(-384.043 2240.76 0)
(-151.063 568.482 0)
(1041.46 2499.64 0)
(-8.99685 250.962 0)
(-130.104 2787.94 0)
(497.495 2482.36 0)
(-2467.6 1761.44 0)
(915.782 1968.55 0)
(-345.663 1513.7 0)
(-757.682 1832.8 0)
(-58.5836 223.975 0)
(-1861.23 2472.15 0)
(-2198.64 624.071 0)
(-841.349 1409.72 0)
(1038.23 1447.23 0)
(182.086 2600.79 0)
(-533.246 2223.01 0)
(24.7572 3196.08 0)
(-311.406 2895.05 0)
(117.841 449.557 0)
(-609.108 2996.6 0)
(-1895.94 996.83 0)
(-2020.45 1464.87 0)
(379.392 1694.14 0)
(829.191 268.126 0)
(-1487.26 1392.98 0)
(-2204.37 903.199 0)
(27.1723 695.559 0)
(61.8999 213.363 0)
(-1577.24 2210.39 0)
(868.186 2387.21 0)
(309.563 2767.44 0)
(55.8777 2922.42 0)
(1393.12 1973.09 0)
(1539.21 1304.9 0)
(-164.504 2877.34 0)
(-579.016 2973.05 0)
(-648.573 2869.71 0)
(1566.59 1235.39 0)
(519.89 2776.09 0)
(-114.71 2600.29 0)
(-2292.61 1776.06 0)
(1784.29 785.282 0)
(-16.3135 163.077 0)
(1193.76 2887.28 0)
(290.474 2730.16 0)
(-92.7887 502.141 0)
(1197.87 2397 0)
(31.8712 2729.12 0)
(682.832 1763.1 0)
(182.638 752.864 0)
(-130.107 2430.2 0)
(412.447 3126.15 0)
(409.666 3136.95 0)
(262.535 2669.95 0)
(-108.878 2686.33 0)
(1215.69 1735.01 0)
(158.901 1474.67 0)
(-1576.48 324.333 0)
(551.658 2409.15 0)
(55.4984 206.492 0)
(551.292 3035.66 0)
(639.319 2517.79 0)
(-1268.56 2812.44 0)
(741.261 2901.08 0)
(2.31343 31.0487 0)
(10.4914 2887.37 0)
(1047.56 2450.77 0)
(18.2131 2893.19 0)
(-4.84966 81.3336 0)
(-126.772 693.141 0)
(-2100.33 576.512 0)
(-2095.39 575.014 0)
(46.2054 198.236 0)
(0.330403 0.64913 0)
(-935.705 3021.3 0)
(2075.12 1770.08 0)
(56.8177 2584.19 0)
(1302.89 271.754 0)
(-1436.48 2667.66 0)
(6.60023 958.733 0)
(2060.61 457.229 0)
(1463.64 3065.97 0)
(53.9422 417.551 0)
(-105.509 2429.9 0)
(-1830.82 1061.32 0)
(-17.653 165.435 0)
(-36.2967 121.61 0)
(1334.67 2581.39 0)
(-417.891 1763.06 0)
(-961.841 1972.23 0)
(-1294.74 2877.69 0)
(175.039 2905.18 0)
(-123.224 2499.77 0)
(-1307.69 2346.01 0)
(926.772 3005.46 0)
(-420.388 1531.67 0)
(-221.634 772.319 0)
(203.482 2441.44 0)
(-69.9412 487.579 0)
(-1515.59 2208.82 0)
(2219.56 488.225 0)
(129.943 958.087 0)
(1238.75 2849.06 0)
(-2097.79 978.927 0)
(-1613.3 1909.42 0)
(141.572 806.596 0)
(-179.021 668.334 0)
(-249.135 2607.93 0)
(92.9654 1929.75 0)
(-446.608 2314.72 0)
(-2186.78 519.913 0)
(-1754.7 1660.47 0)
(-1669.33 387.283 0)
(-2234.74 589.336 0)
(2281.17 786.891 0)
(-49.9505 2892.23 0)
(-124.6 682.805 0)
(-553.615 2534.29 0)
(-354.24 2720.08 0)
(-768.154 2663.29 0)
(80.4246 732.834 0)
(-71.399 652.727 0)
(1220.03 2965.7 0)
(1217.75 2727.63 0)
(-78.7964 614.315 0)
(1027.78 1433.2 0)
(-1434.8 2931.55 0)
(-134.643 494.566 0)
(138.857 2952 0)
(-180.244 855.93 0)
(522.695 2811.24 0)
(-230.454 2241.2 0)
(54.6747 2573.59 0)
(523.827 2788.39 0)
(-837.801 2662.85 0)
(1087.66 2891.82 0)
(0.241404 0.315241 0)
(18.8177 2455.6 0)
(-36.6268 390.036 0)
(-88.3905 2905.23 0)
(-467.936 2319.2 0)
(-36.5297 383.686 0)
(-323.653 2699.96 0)
(967.543 3068.81 0)
(567.604 2397.86 0)
(-2195.2 547.323 0)
(-120.521 443.576 0)
(-1735.22 371.275 0)
(47.1418 412.084 0)
(1637.8 2858.47 0)
(-376.133 2693.9 0)
(276.659 2755.25 0)
(811.493 2683.54 0)
(-612.356 2488.92 0)
(878.013 2649.8 0)
(-132.012 3182.17 0)
(61.0233 1458.23 0)
(707.742 2889.69 0)
(-2206.79 1541.25 0)
(-25.9833 2938.24 0)
(-2216.04 527.664 0)
(449.072 2835.99 0)
(-47.5133 1121.48 0)
(46.4632 452.996 0)
(-1539.61 2273.65 0)
(18.0466 284.513 0)
(260.509 1402.74 0)
(-12.2012 93.4499 0)
(-1604.95 1925.03 0)
(1603.77 1315.47 0)
(59.6004 2942.95 0)
(-72.1755 808.702 0)
(408.703 2840.91 0)
(-93.6509 309.283 0)
(522.181 2761.4 0)
(-1235.54 2506.83 0)
(-724.041 3133.29 0)
(-2337.37 1557.02 0)
(114.862 2709.92 0)
(-627.006 2666.93 0)
(1967.41 1471.97 0)
(431.096 2144.9 0)
(42.9732 156.99 0)
(-785.967 1740.88 0)
(-2263.2 2078.18 0)
(-107.118 2676.58 0)
(152.244 996.264 0)
(191.153 2394.26 0)
(-1333.83 308.654 0)
(-0.664868 11.7007 0)
(-1669.55 1069.26 0)
(1585.31 2049.33 0)
(-891.278 3034.66 0)
(2151.25 534.849 0)
(66.8015 2388.22 0)
(450.263 3158.72 0)
(628.881 2492.1 0)
(925.99 3004.26 0)
(675.264 2352.57 0)
(-22.2535 376.852 0)
(-428.696 2252.21 0)
(182.453 844.311 0)
(95.7738 1938.29 0)
(1732.5 1640.8 0)
(-202.805 2897.23 0)
(204.517 2744.66 0)
(963.832 164.925 0)
(-1386.34 2823.83 0)
(-188.937 2846.23 0)
(79.0418 271.306 0)
(-1848.38 1081.23 0)
(-1174.76 507.792 0)
(-306.253 537.717 0)
(-107.915 2682.1 0)
(-62.6984 329.854 0)
(324.605 1675.1 0)
(39.2111 381.041 0)
(400.963 2584.49 0)
(148.806 2947.21 0)
(-793.692 1686.67 0)
(55.2438 1086.45 0)
(-1556.17 2236.4 0)
(-14.2644 491.319 0)
(1267.1 1443.38 0)
(-109.021 3011.52 0)
(624.834 2890.5 0)
(43.303 3144.7 0)
(1303.78 873.347 0)
(-536.63 2512.01 0)
(1377.98 2351.82 0)
(1187.01 1618.63 0)
(-2203.23 620.547 0)
(451.373 2849.78 0)
(-1920.86 432.834 0)
(-406.742 2272.31 0)
(69.8464 744.286 0)
(108.447 2938.96 0)
(-1242.37 2896.2 0)
(-35.1456 2663.08 0)
(-822.286 2672.1 0)
(707.378 3111.94 0)
(1590.94 779.025 0)
(304.824 3165.68 0)
(-911.455 3010.13 0)
(326.351 2722.08 0)
(0.0981901 0.128122 0)
(-2224.02 825.657 0)
(-398.455 2246.93 0)
(-1838 1701.89 0)
(77.4491 741.612 0)
(42.239 451.394 0)
(-63.2235 345.186 0)
(307.331 2772.38 0)
(2286.8 589.739 0)
(134.625 2448.23 0)
(-21.4535 595.374 0)
(606.068 2774.09 0)
(-430.969 2815.52 0)
(-675.678 2866.1 0)
(1788.29 1871.78 0)
(-1695.07 2239.05 0)
(-992.11 3077.08 0)
(1534.65 2019.15 0)
(1405.81 3074.73 0)
(986.65 1928.25 0)
(-1379.34 2702.31 0)
(90.2837 360.957 0)
(-1198.95 1371.79 0)
(1266.92 2096.96 0)
(419.402 2789.79 0)
(-1128.47 2578.16 0)
(-228.624 2359.51 0)
(1426.56 2302.13 0)
(-43.7581 167.94 0)
(305.837 2758.78 0)
(1276.92 1608.18 0)
(-1137.58 2530.85 0)
(-43.3695 263.448 0)
(49.9687 241.388 0)
(-1113.06 2915.85 0)
(1955.54 2587.47 0)
(-19.2822 2981.9 0)
(2316.95 1932.37 0)
(1283.29 2916.24 0)
(-2069.32 1413.36 0)
(-1690.57 1712.45 0)
(-11.1551 486.742 0)
(2242.54 718.479 0)
(-42.2602 210.352 0)
(1833.55 364.982 0)
(-1302.37 2367.6 0)
(-587.454 3150.32 0)
(1908.97 1584.28 0)
(1361.28 2271.71 0)
(7.89479 9.21261 0)
(-76.3948 281.476 0)
(-834.42 1690.93 0)
(-1622.51 1336.88 0)
(-1812.65 1476.54 0)
(-1848.39 679.221 0)
(167.786 715.57 0)
(-7.88166 3117.18 0)
(250.041 2817.89 0)
(1762.28 1997.08 0)
(1376.66 1302.62 0)
(2.01453 5.06493 0)
(-476.246 2782.49 0)
(-27.8155 148.813 0)
(1033.04 3050.81 0)
(1045.21 3089.72 0)
(1385.89 2846.98 0)
(55.4313 2694.71 0)
(1118.8 2494.69 0)
(1082.03 2396.71 0)
(2172.73 478.89 0)
(63.7971 738.35 0)
(-70.7786 275.912 0)
(-950.336 329.319 0)
(-1650.02 2439.19 0)
(-61.338 2746.34 0)
(166.412 2439.61 0)
(-60.2518 3209.28 0)
(-783.978 1853.77 0)
(2289.77 776.855 0)
(-1485.28 1294.73 0)
(1776.78 1886.72 0)
(890.445 1997.75 0)
(-19.7299 348.725 0)
(580.637 2040.09 0)
(182.075 2762.04 0)
(-1427.62 2850.56 0)
(-532.222 2047.54 0)
(-2040.31 1041.37 0)
(1681.08 1233.16 0)
(787.129 2676.79 0)
(1043.5 2266.86 0)
(-228.602 2105.95 0)
(622.272 2552.68 0)
(856.314 1682.5 0)
(1074.61 2522.47 0)
(1510.67 2569.36 0)
(180.375 2183.54 0)
(-165.651 613.777 0)
(-219.3 919.841 0)
(167.891 648.406 0)
(1697.49 2678.83 0)
(35.4255 379.03 0)
(27.7981 1050.19 0)
(1285.2 1514.11 0)
(-13.8343 2676.84 0)
(1110.87 3047.53 0)
(-1921.18 846.624 0)
(2145.5 2574.69 0)
(-98.3281 355.271 0)
(886.802 2582.52 0)
(1225.64 2865.48 0)
(-698.26 2714.79 0)
(1881.52 1592.87 0)
(432.8 2772.87 0)
(48.9207 417.392 0)
(-805.203 2531.6 0)
(1339.34 1744.72 0)
(-41.0137 212.941 0)
(342.963 2262.32 0)