/*--------------------------------*- C++ -*----------------------------------*\
  =========                 |
  \\      /  F ield         | OpenFOAM: The Open Source CFD Toolbox
   \\    /   O peration     | Website:  https://openfoam.org
    \\  /    A nd           | Version:  8
     \\/     M anipulation  |
\*---------------------------------------------------------------------------*/
FoamFile
{
    version     2.0;
    format      ascii;
    class       volScalarField;
    location    "3e-05";
    object      alphat;
}
// * * * * * * * * * * * * * * * * * * * * * * * * * * * * * * * * * * * * * //

dimensions      [1 -1 -1 0 0 0 0];

internalField   nonuniform List<scalar> 
23640
(
3.31321e-06
7.70275e-06
9.73463e-09
0.00938463
1.56159e-05
2.77971e-05
1.08223e-05
1.98881e-05
5.29439e-05
8.93986e-06
0.003357
2.47674e-05
1.02339e-05
9.90439e-06
1.84408e-05
1.83945e-05
1.36819e-06
0.00152005
0.00326625
5.74981e-05
0.00232731
2.0903e-09
0.00245919
0.00034032
2.13088e-05
1.62319e-05
0.000523657
9.82091e-05
5.9063e-07
9.68863e-06
7.84303e-06
0.0909467
0.00218704
3.48547e-05
3.64425e-05
1.36124e-05
1.42233e-06
3.6438e-06
3.14565e-08
0.000484421
2.57756e-05
5.38254e-05
1.61789e-05
4.83813e-08
0.0190843
0.000417831
3.28383e-06
1.25822e-05
9.01969e-06
1.91351e-05
0.375555
0.00263322
1.08231e-05
1.55751e-06
0.0099208
7.94485e-07
4.60507e-05
1.47509e-05
4.61384e-06
0.00848249
7.55129e-06
0.000590007
0.00350756
0.00290368
5.53042e-06
0.00282946
1.97263e-05
2.02344e-05
0.000246614
1.75633e-05
0.000353209
3.38922e-05
0.00155441
1.28989e-06
2.82028e-05
0.0253672
1.33027e-08
9.86941e-06
0.0032693
0.00365791
0.000482769
8.38093e-05
4.53215e-06
4.66195e-06
5.37963e-06
3.36077e-06
0.00254386
9.22103e-05
0.000378544
1.95577e-05
6.54109e-06
1.88367e-05
2.58653e-05
0.00211941
0.00305091
1.85825e-05
0.00299306
2.43659e-06
3.41266e-05
1.97297e-05
3.26878e-05
1.54631e-06
0.000157927
9.38891e-07
2.67257e-05
3.33712e-06
0.00103612
1.15437e-06
2.94275e-05
3.65421e-05
6.63212e-06
0.00165657
4.13196e-05
2.51014e-05
2.14083e-05
4.7524e-07
1.62205e-05
6.04477e-06
2.80777e-06
1.23877e-05
5.19446e-05
0.0830043
2.97787e-06
0.0927822
0.000191249
0.000333377
0.501151
5.23337e-05
2.79817e-05
2.16781e-05
0.000157349
5.19349e-05
1.08879e-05
0.000300345
1.04729e-06
7.29808e-05
0.00255235
2.06716e-05
0.00338106
0.0030295
3.59991e-05
4.59012e-05
0.00141798
0.00343408
0.000731998
2.73678e-05
0.00299081
0.000917047
6.77656e-06
0.000236046
1.88961e-05
2.50794e-05
4.76684e-06
0.00617506
9.53861e-05
1.257e-06
1.08971e-05
4.15978e-05
2.05493e-05
0.000521758
1.83734e-05
7.38214e-06
1.35859e-05
1.43626e-05
4.9978e-07
4.19399e-07
0.000572503
0.000171629
0.00134549
5.10677e-05
1.21914e-05
1.91064e-05
2.76639e-05
2.78021e-05
0.0023379
0.00191312
2.21636e-05
3.36275e-05
0.00366599
1.07332e-05
0.0191276
2.43079e-07
2.05166e-05
7.99259e-05
7.26005e-07
0.00139233
0.00020224
2.24777e-05
0.00551322
8.99748e-05
6.23432e-05
0.00285465
0.0618562
4.71557e-06
1.05059e-06
0.000277504
2.67214e-05
3.13374e-05
1.57923e-07
0.000213773
0.00342044
9.22717e-08
3.70736e-06
5.341e-05
0.00296669
5.19727e-06
1.3483e-07
0.00232637
2.8122e-05
0.000807851
1.11257e-05
1.92935e-05
9.16242e-06
5.32825e-06
2.61225e-05
3.16555e-05
1.36948e-05
5.54506e-05
2.31331e-05
8.48323e-08
9.92382e-06
0.00309393
0.00340478
2.54745e-05
0.000448737
3.8659e-05
1.88746e-05
0.0845582
7.16933e-08
6.52804e-06
3.67329e-06
8.83476e-07
4.802e-05
1.86466e-05
4.03514e-05
8.58351e-05
0.000404171
3.25147e-05
6.76433e-06
0.000275872
3.76605e-05
6.65702e-06
2.58463e-05
5.38271e-05
0.00863392
1.27969e-06
1.08492e-05
1.50906e-06
0.00493121
0.000279486
0.00995457
1.74182e-05
3.24227e-06
0.00220616
4.75521e-06
0.000544059
9.60143e-09
1.01348e-06
0.0022289
0.0015664
0.0135328
5.93674e-06
3.98882e-05
2.95147e-05
6.65136e-07
1.63992e-05
0.000346379
3.22395e-05
4.75743e-06
0.00246805
1.55404e-05
4.03262e-07
4.06903e-05
0.00648869
4.43486e-05
3.69242e-05
7.84179e-07
0.080521
0.00324166
2.64912e-05
0.000301652
4.02531e-07
0.0012655
0.00356768
4.16134e-05
0.000545199
2.50321e-05
2.47817e-05
1.08708e-05
0.00356395
2.60284e-05
1.0222e-06
2.97668e-05
2.04383e-05
0.00336476
2.62174e-05
2.20827e-05
1.40291e-06
1.97096e-05
1.92225e-06
0.000179349
0.00293408
0.0958333
2.42751e-05
0.00251014
4.92259e-07
6.27804e-05
0.000331527
0.0119995
0.00126588
9.6458e-07
5.50402e-05
0.00239919
0.0027579
0.00329552
0.000319477
2.16537e-05
8.7535e-09
0.0031
3.26436e-05
3.81595e-06
3.60219e-05
3.62591e-05
9.41758e-05
1.06312e-06
4.48218e-05
0.000221398
2.48968e-05
6.04226e-06
0.238678
0.00115646
2.00108e-05
8.20595e-05
0.000136378
2.95611e-05
2.45885e-05
1.76294e-07
1.66396e-05
2.59008e-05
1.95292e-05
1.45724e-06
0.000999396
9.22477e-05
0.0723535
0.00192087
0.00145961
0.000462866
2.43251e-05
3.6389e-05
5.22656e-05
0.001588
3.86026e-05
1.0393e-06
6.01717e-06
3.68568e-05
4.55239e-07
1.29212e-05
4.87124e-06
0.00318755
0.00315069
0.000197049
0.00293815
0.00296112
1.63262e-06
3.07182e-05
2.31239e-07
2.94235e-07
1.40906e-05
0.00336873
1.06549e-05
6.15257e-05
0.000116728
9.65157e-07
0.00329724
0.000192393
1.03624e-06
0.0064956
1.02458e-07
2.51197e-05
0.000361841
0.00174191
0.000125862
3.01035e-05
0.00117812
3.73992e-05
9.67744e-07
1.96192e-05
3.70325e-07
0.000319014
3.39605e-07
0.0024776
2.49986e-05
7.39235e-08
1.13462e-05
3.56108e-05
0.000489438
0.0713037
2.55133e-06
3.12402e-06
0.000365033
1.40227e-06
4.58423e-05
4.89051e-05
4.68364e-07
1.00518e-05
1.8059e-05
0.00548967
6.75136e-07
1.76287e-05
2.05401e-05
3.00303e-05
0.00486666
0.00193694
6.72106e-05
0.00313617
2.5279e-05
0.000504099
1.34608e-05
6.21941e-05
4.69186e-05
0.0023487
0.00243106
1.90727e-05
2.98565e-05
1.3006e-05
3.94677e-07
0.077582
3.86702e-06
0.00288936
1.79946e-05
7.94573e-07
0.0227699
0.000772686
0.00227084
0.000221718
0.00200521
7.19097e-05
1.3354e-05
0.000154474
0.00412774
0.000144033
0.00266247
6.56309e-06
1.39105e-05
0.00119521
2.43065e-05
0.000416794
1.45596e-05
0.00341499
1.43913e-05
81.9949
1.98278e-05
0.00245485
2.63887e-05
0.000956249
9.6807e-07
1.00459e-05
6.24986e-05
0.0012376
1.15869e-05
6.17978e-05
4.11486e-05
3.89131e-05
7.0669
1.67793e-05
1.22765e-05
1.78037e-05
3.44752e-07
2.43358e-05
6.27906e-05
0.000145729
2.06221e-05
0.0145939
2.14655e-07
2.37267e-06
0.000556504
1.3923e-05
1.71801
5.32662e-05
0.0162537
2.75563e-05
5.31833e-07
7.5216e-05
1.44301e-05
1.92829e-05
2.16228e-05
0.00121701
1.39163e-07
8.50505e-06
2.27215e-06
0.000341746
0.00969818
8.34876e-06
0.000246743
2.44521e-05
1.77191e-05
2.53403e-05
0.000983633
2.35061e-05
4.48039e-06
1.73689e-05
0.00398735
3.85818e-07
2.61632e-05
2.20631e-05
4.69393e-06
3.42481e-05
8.86519e-07
9.98189e-07
9.87995e-06
0.000487553
3.68674e-06
8.95243e-06
4.23915e-06
0.00220878
3.4467e-05
3.76572e-05
9.10177e-07
5.35878e-05
0.00349057
3.12753e-05
0.00221773
128.804
1.39229e-05
1.06942e-05
4.20023e-05
0.00193643
6.14231e-05
0.00179853
4.51661e-06
2.00065e-05
0.000514801
7.9334e-05
2.48816e-05
2.01718e-06
1.39963e-05
1.09312e-05
3.67968e-05
1.16778e-06
3.62722e-05
1.46843e-05
2.14804e-05
2.53806e-05
1.89401e-05
2.09521e-06
1.52038e-05
1.56601e-05
0.000649476
1.97467e-05
1.95278e-05
0.000208392
1.89389e-05
1.42442e-06
7.98505e-08
0.000147841
1.21181e-05
2.39754e-05
5.54718e-06
0.00267924
0.00275104
1.09139e-05
0.00134515
2.59563e-05
0.000215999
0.0030669
0.00241224
2.88644e-05
0.00293521
5.52759e-05
1.0132e-05
53.9614
1.18261e-05
2.4503e-05
2.45957e-06
5.49901e-06
0.00333975
4.14465e-06
3.63055e-06
2.26805e-05
2.41036e-06
0.0247177
4.58451e-05
4.86301e-06
6.14892e-05
0.00278006
0.000343649
1.68391e-05
2.24794e-05
1.54081e-05
0.00298872
0.00474758
2.30162e-05
2.476e-05
5.16105e-05
4.67875e-06
0.00311676
5.40338e-05
0.000290216
2.07245e-05
2.26548e-05
0.00324893
0.003423
0.0020298
6.23444e-05
9.38068e-06
1.17744e-06
4.27695e-05
2.9968e-06
3.5602e-05
0.00186299
1.33962e-05
1.88763e-05
2.60234e-05
1.55606e-05
2.95487e-05
4.11657e-05
3.41586e-06
2.9649e-05
1.87356e-06
0.0785764
0.00301722
2.25188e-05
2.47519e-05
0.00482265
1.38732e-05
0.00287242
1.48706e-05
0.00325159
1.82337e-05
7.04814e-06
2.50168e-07
2.79861e-05
2.90975e-07
1.09251e-05
1.03624e-07
0.0115263
1.84521e-05
1.53158e-05
2.15619e-06
1.34848e-05
5.20959e-05
2.62998e-06
0.0012282
1.04737e-05
3.04463e-07
4.5622e-05
0.00324965
0.000263295
9.0174e-07
2.42411e-05
2.38046e-05
0.0645524
0.000554507
6.18074e-06
5.43033e-05
0.00289394
2.23996e-05
0.00121756
1.10159e-05
1.23235e-05
7.35831e-05
0.000329516
4.83182e-07
4.43782e-05
1.31414e-10
1.89913e-11
6.21781e-06
0.0487499
0.000556578
3.27324e-05
0.082513
3.22863e-05
1.90884e-05
2.81835e-05
0.00328349
1.50833e-06
1.42362e-05
1.95273e-05
2.51203e-06
0.00402671
0.00931422
4.90814e-05
2.44456e-05
8.21968e-08
3.83678e-05
7.83223e-07
0.00732428
2.77818e-05
0.000419103
0.0779564
5.70179e-07
1.66115e-07
0.000644268
6.38238e-06
0.0020986
1.02576e-06
2.75073e-05
2.69643e-05
0.000611607
3.90018e-05
0.0234073
0.00325868
3.91837e-05
0.000243511
1.36902e-06
3.38587e-05
0.000243317
2.30516e-05
0.00080344
3.81541e-05
0.00211043
0.000316967
2.64705e-05
1.70577e-07
5.03961e-10
1.21028e-05
3.15399e-05
1.17579e-05
0.0021715
6.01889e-06
3.74882e-05
0.000542665
1.59652e-05
2.54061e-07
9.52995e-05
2.70063e-09
4.35976e-07
1.28485e-06
2.75353e-05
0.007982
3.65766e-05
3.96644e-06
0.00334254
0.000761207
1.54646e-06
3.60741e-05
9.36971e-07
2.58185e-05
0.00356337
4.34654e-05
1.569e-05
3.81283e-05
0.0036625
3.70505e-05
9.13717e-07
0.0010909
4.67774e-06
0.000124096
8.31122e-07
1.28336e-05
0.0017368
2.93204e-07
2.17842e-05
1.11421e-05
1.91442e-05
1.79543
0.000355019
1.23128e-06
0.0024859
0.000398049
5.47953e-06
4.5442e-06
0.000866479
3.93851e-05
0.00576245
1.87269e-06
0.00356392
4.78878e-05
0.00209233
9.42836e-05
2.5381e-05
5.92224e-05
0.000360646
4.19561e-05
0.000319065
1.05808e-05
0.00144826
4.70935e-05
0.0025811
5.30061e-07
2.17102e-05
0.0968025
2.18519e-08
5.75274e-07
2.71891e-06
0.00886276
0.000255632
7.48211e-07
7.76689e-05
4.14709e-05
2.18711e-07
1.56056e-05
0.000921286
1.96536e-05
2.73221e-07
0.000657773
7.25177e-06
0.00273956
1.99613e-06
0.000494191
4.96466e-05
4.45837e-05
2.4274e-05
6.5784e-06
1.52291e-05
0.00312166
1.17849e-05
0.00287777
0.00247714
1.20996e-05
9.12511e-06
0.000389102
1.88059e-05
0.00488651
2.08012e-06
5.97792e-05
9.64727e-06
1.44006e-05
1.85602e-05
2.91524e-05
5.0422e-05
5.68013e-08
1.45806e-05
0.000103781
2.19728e-06
0.000792877
0.000162444
5.21648e-06
1.6797e-05
0.000908052
1.3068e-05
0.000350798
1.85653e-06
0.00314673
4.06429e-05
3.17055e-05
3.08579e-05
0.00127366
5.68426e-08
1.14237e-05
0.00305535
5.37734e-05
0.00354878
3.1773e-05
1.59551e-06
8.69381e-07
0.00626838
1.34233e-05
0.000396124
1.7829e-05
1.00936e-05
1.08187e-05
2.66899e-05
9.24202e-06
0.00335572
59.4789
2.80448e-05
6.7509e-05
5.05967e-05
4.30445e-05
4.29291e-05
3.20796e-06
1.72788e-05
6.94837e-05
0.000642288
9.64941e-06
0.00353745
3.26492e-06
0.0285596
9.32123e-06
5.30473e-05
0.000728674
0.00271553
0.00291124
0.706223
6.00775e-07
0.000214927
0.000226563
9.99002e-07
3.1615e-07
2.13585e-05
8.23981e-06
0.00299424
8.57153e-06
3.83471e-05
5.76024e-05
0.00349121
0.000152658
0.00708804
1.17398e-05
1.7587e-08
0.000302904
2.92418e-05
6.1337e-06
0.000114728
8.63988e-05
3.97345e-07
1.4629e-05
3.63173e-08
0.00049822
0.00333371
2.07772e-07
1.54145e-05
8.39332e-06
0.00106896
2.04746e-08
8.26038e-05
1.31161e-05
4.52494e-05
1.16984e-06
9.12739e-05
3.55235e-07
1.00306e-05
5.74621e-05
0.000736736
1.76963e-05
0.000788009
0.00198161
0.0029139
0.00329437
1.58925e-05
0.000955553
9.48801e-06
0.000261019
4.71361e-07
1.01087e-05
8.82806e-07
4.57875e-05
9.1613e-06
0.00532041
0.00309614
0.0020202
5.07402e-09
2.74175e-05
0.0154203
0.000106068
1.19579e-05
1.17147e-05
3.24282e-05
0.00429789
3.08095e-06
2.72795e-07
1.86812e-06
2.67838e-05
0.00338748
6.10887e-05
0.00130271
0.000815456
1.03264e-06
5.39552e-06
2.11647e-05
0.00311096
1.73721e-06
1.02713e-05
7.26594e-06
8.33748e-06
0.0007247
1.10512e-08
1.15361e-05
8.19669e-07
2.25888e-05
6.22736e-06
0.00280079
5.48536e-06
2.79176e-05
1.45727e-05
1.52865e-05
0.00379352
4.55973e-06
1.51878e-05
0.00340131
2.87886e-06
0.00293762
3.96415e-05
4.95348e-06
9.90396e-06
2.47051e-05
1.07284e-05
2.73733e-05
0.00182237
3.19919e-06
5.30564e-06
2.97479e-05
1.60552e-05
1.63754e-05
0.00168628
9.37762e-08
1.04648e-05
0.000725147
0.00332834
4.22747e-06
0.00622818
2.67277e-05
2.63939e-05
0.000685019
4.10697e-05
0.0044076
4.62546e-06
3.90616e-05
2.70889e-05
5.44812e-05
5.91746e-06
0.00255224
9.28761e-05
1.78483e-05
0.000531807
7.2706e-05
1.03064e-06
2.64229e-07
5.05334e-07
5.67909e-07
2.27211e-05
3.6365e-06
1.03899e-05
0.000288878
4.91527e-05
1.67917e-05
1.0232e-05
4.2597e-05
1.17166e-07
0.00288817
0.0404837
2.07036e-07
0.000510822
0.000105806
8.21746e-07
9.40504e-06
0.00273777
8.61575e-05
1.57476e-05
0.0030157
8.52911e-05
1.95964e-05
4.724e-05
1.84735e-06
2.35386e-05
1.24262e-05
2.15221e-05
3.50382e-05
3.02271e-06
5.80559e-06
0.00149542
1.02318e-05
9.76305e-06
1.35504e-06
0.000265915
3.52056e-05
0.000549626
0.0308618
2.38234e-05
6.13445e-06
2.41014e-05
0.020773
0.000385381
0.00173654
1.75465e-05
0.00237861
2.26525e-05
3.76879e-07
5.83631e-05
3.12755e-05
0.000410395
1.51172e-06
0.00502388
1.74016e-05
5.15052e-06
8.48946e-08
0.000318955
0.00117288
1.61255e-05
0.000750378
2.8925e-07
1.31801e-05
0.000172684
0.000128315
2.56048e-05
0.000297312
7.81832e-06
7.32188e-06
0.000558033
9.61452e-06
1.2043e-05
2.59335e-05
0.00102655
9.95158e-08
1.63912e-05
2.35189e-05
0.00335282
6.95378e-05
2.25422e-05
8.90489e-05
2.33838e-05
6.39814e-06
6.19055e-05
3.04884e-05
8.99587e-06
1.13416e-05
1.95703e-06
8.07977e-06
1.31209e-05
3.92552e-05
8.15624e-08
2.75959e-08
0.00732117
8.90337e-07
3.38498e-05
0.00197095
1.21344e-06
4.15284e-05
0.000620385
0.000809669
2.98877e-05
7.90215e-06
8.01183e-06
2.2759e-05
2.69949e-05
0.000250776
0.00166233
1.44568e-07
0.00014711
0.000621252
9.68204e-06
3.42974e-06
6.64732e-07
1.56734e-06
0.117925
2.25143e-05
4.66826e-05
2.24584e-05
0.0217512
0.00197083
5.64996e-06
5.75681e-06
0.00220751
0.0588745
1.02429e-06
2.38533e-07
2.7521e-05
1.25795e-07
5.04214e-07
0.00326271
1.86284e-06
5.01588e-07
0.0029057
2.49439e-05
5.15175e-05
0.00706466
0.00147694
7.13887e-07
0.000908922
4.49357e-05
3.4785e-06
1.33176e-05
1.69022e-05
3.69695e-05
1.09907e-06
0.0010223
1.26485e-05
0.000154463
0.00260625
2.87729e-05
3.09855e-06
0.00199523
3.35646e-06
3.39886e-05
6.59855e-05
0.00197973
0.000383704
6.95044e-05
0.00086156
5.64876e-05
5.3264e-06
5.48175e-05
2.01846e-06
1.03648e-05
1.19925e-05
2.14282e-05
0.00197555
6.89721e-05
1.97157e-05
2.44603e-06
0.0029093
0.0029082
7.67271e-07
1.22569e-06
0.00272394
0.000145054
3.80111e-07
0.000314345
5.53761e-06
0.00118165
1.4271e-05
1.43714e-05
2.7616e-05
1.8536e-05
1.77637e-05
1.0526e-06
64.3928
1.82953e-05
0.00336986
1.13148e-05
6.11701e-05
0.0033825
3.42947e-05
9.55379e-07
0.000149587
7.71866e-06
0.00038253
2.48713e-06
0.00309892
3.42161e-07
3.38752e-05
3.39012e-05
1.43692e-05
3.64336e-06
1.67949e-05
8.33319e-06
0.00191349
1.03813e-05
1.12602e-07
7.03642e-06
6.78655e-06
1.73398e-05
0.00198182
0.00312906
2.07938e-05
0.00437249
0.00110174
0.0166064
6.58864e-05
8.828e-06
6.29677e-06
0.00302501
1.53479e-05
2.2285e-09
1.30861e-05
1.86716e-05
5.24345e-06
4.54259e-08
2.89868e-05
2.84882e-05
3.77294e-05
2.72679e-05
0.000944794
1.77111e-05
1.67287e-07
2.73569e-05
0.00131311
2.48434e-05
1.95684e-07
0.000743301
9.14357e-06
5.77159e-05
1.15349e-06
2.40486e-06
0.000204707
6.34231e-06
4.89867e-06
5.60135e-06
6.06314e-05
0.00368679
4.08719e-05
0.00113367
0.000878224
7.37014e-05
2.16096e-05
1.95055e-05
1.08423e-09
5.44379e-07
2.57517e-05
3.87051e-05
4.06775e-08
4.61796e-07
5.75119e-09
2.68134e-05
0.00222894
0.00111252
0.00332982
4.27662e-05
1.81822e-05
1.65278e-05
0.00232084
2.27194e-05
0.00349032
1.13073e-05
1.33793e-05
2.11109e-06
8.9222e-06
1.90681e-06
6.63045e-05
2.38111e-05
1.87557e-05
1.29958e-05
1.70801e-05
2.79961e-06
0.000310143
0.0030413
5.04933e-06
3.29232e-06
2.90892e-05
1.70884e-05
5.7807e-06
3.54565e-07
7.44076e-06
5.66328e-06
1.45269e-05
116.024
2.07131e-05
3.10647e-05
3.70902e-05
0.0029466
0.00321133
0.00229992
2.33215e-05
4.67714e-06
0.000147774
0.00337398
1.00193e-05
1.21506e-05
1.94404e-06
4.1109e-05
3.70456e-07
9.19198e-07
6.96783e-05
4.62357e-07
5.41751e-05
5.73071e-07
0.000851141
3.93664e-05
9.04224e-05
1.89082e-05
2.08245e-05
3.12312e-05
2.27918e-05
0.00151122
2.36513e-05
0.000215053
2.04209e-05
0.00315878
0.00244199
6.38328e-07
2.88858e-07
1.61538e-05
2.14188e-07
2.08605e-06
2.34056e-05
6.55644e-05
0.00351014
1.1734e-05
0.00309971
8.58866e-07
3.67369e-05
6.27462e-06
4.32579e-05
4.58097e-05
0.480078
0.000418859
1.64242e-05
0.000103059
5.76706e-05
3.56229e-06
0.000991029
1.07014e-05
1.26556e-05
2.81091e-05
5.05842e-08
0.0601057
1.57403e-05
0.00601764
5.09285e-06
7.8167e-07
6.25724e-07
4.81877e-05
2.61792e-05
6.50213e-05
2.79971e-06
0.00309014
0.000852108
2.21297e-10
4.99184e-07
4.03922e-05
2.76325e-05
6.79377e-06
0.00048947
1.28632e-05
0.00010023
4.30686e-05
0.000314897
0.00384436
0.000451001
2.03034e-05
2.37897e-06
2.63663e-05
1.69733e-05
6.78809e-05
1.63536e-05
0.000102759
0.000547839
5.46048e-05
0.000475444
5.31587e-05
6.81827e-07
1.202e-05
0.000364583
0.000133129
0.000480058
4.09096e-07
0.00342297
0.00298421
1.4198e-05
4.72755e-05
7.57004e-07
8.14328e-06
4.35454e-07
0.000297787
2.6538e-05
3.25781e-06
1.57376e-05
4.55347e-05
1.88441e-05
0.00305447
5.86832e-05
0.00019317
0.00323979
2.37391e-05
1.05504e-05
2.62091e-05
4.94635e-05
2.00724e-05
0.00010425
1.00251e-05
1.42359e-05
5.22266e-06
3.394e-06
2.28562e-06
3.44933e-10
5.72317e-06
1.86867e-06
0.00282361
3.47032e-07
2.31048e-05
1.48418e-05
2.94265e-05
1.12934e-05
4.27302e-06
8.0358e-08
1.02704e-07
1.80462e-05
0.00319629
1.22719e-06
9.64123e-06
0.00349063
1.12549e-05
4.26807e-05
1.01558e-05
4.43523e-05
0.00268886
7.05944e-07
0.0176499
0.00270698
1.66857e-05
1.05977e-08
7.27734
8.54263e-06
2.68733e-05
4.65244e-05
0.00149729
1.81754e-05
1.1069e-05
0.000103795
4.75299e-05
2.07865e-05
5.27067e-06
6.75344e-05
0.00612319
0.000847174
2.06522e-05
0.00252796
0.00031739
4.04036e-08
2.51405e-05
0.00134494
0.00380246
0.00388842
1.39862e-05
1.2836e-05
0.000637122
3.11592e-05
1.49611e-05
1.81343e-05
0.000300084
0.00252545
1.88719e-06
5.40859e-06
1.23757e-05
1.74463e-05
0.00320901
1.62869e-05
6.98402e-06
4.80824e-05
0.000990037
7.4578e-05
2.45808e-05
0.00551032
0.022538
0.00253798
0.0082656
5.36365e-07
0.000104563
0.00041295
0.000310716
3.78547e-05
5.31117e-05
1.08105e-05
1.38446e-05
0.0032434
1.10274e-07
8.8552e-05
0.00334912
1.04805e-05
0.00834719
0.00201065
0.00181286
79.7648
4.01216e-06
7.10488e-06
2.78609e-05
4.1304e-05
0.000899283
0.000302288
6.86315e-07
1.15555e-07
3.12433e-05
4.06219e-05
1.40321e-05
4.90902e-05
2.50618e-05
0.00324342
1.43139e-05
2.03008e-05
2.11735e-05
3.01878e-07
2.91978e-05
0.00367119
9.31262e-06
3.76564e-06
0.00065835
7.80729e-05
2.50358e-05
1.21884e-05
2.11724e-05
3.10424e-05
1.0223e-05
3.28128e-06
7.38372e-05
5.12827e-06
0.0017751
0.46363
0.00557975
2.12662e-05
6.6238e-06
6.4139e-06
0.000244628
1.11523e-05
5.21467e-05
3.58762e-05
0.000134741
9.35111e-06
0.00105806
0.00294003
2.19475e-05
3.19595e-05
2.01902e-06
5.00256e-09
0.00156915
4.06096e-05
2.36705e-05
31.2228
1.66116e-05
2.42788e-05
2.0246e-05
0.00600197
2.12235e-05
1.80875e-05
0.00294628
1.79327e-05
0.000488281
4.78567e-06
0.000275931
0.000117934
0.00698902
2.88248e-05
6.92716e-05
2.51897e-05
1.70133e-05
0.00316577
1.03767e-05
1.2282e-05
1.19734e-05
0.00023983
2.42871e-05
0.00417823
0.000246945
0.00206027
4.21792e-05
1.25642e-05
5.37534e-06
4.13395e-05
0.000477254
4.01005e-07
1.49655e-05
0.0517978
0.00296206
2.65357e-06
0.000556173
1.54752e-06
6.78853e-05
8.78686e-06
0.00127091
4.80418e-06
8.98828e-07
0.00403554
0.00346741
7.56103e-06
1.98577e-05
0.0049674
3.22712e-07
8.67788e-05
3.91358e-05
1.57322e-05
5.3724e-05
5.10468e-07
1.00024e-05
4.12124e-05
0.0016957
1.77799e-05
0.00021445
0.00330033
0.000206291
2.73277e-08
2.036e-05
1.48818e-05
4.71096e-05
0.0192186
0.000101555
0.000923954
0.0349325
4.70208e-05
2.34687e-05
1.87156e-05
0.00651784
2.28894e-06
1.55677e-05
2.81332e-05
2.43358e-05
0.00512952
7.38509e-07
5.274e-05
9.5334e-06
0.00012708
0.00155283
4.51608e-05
0.00295001
7.87912e-07
1.1845e-05
0.00111053
0.0019629
7.97681e-05
0.055689
8.24866e-07
4.4295e-08
2.85851e-06
0.000454798
6.33985e-05
2.87212e-06
0.000110551
6.03212e-06
0.0462178
1.02554e-06
1.43963e-06
8.10479e-06
7.16946e-07
0.000701482
0.00065173
1.32693e-05
0.00235708
2.1447e-05
1.73979e-05
0.000625838
1.45305e-05
0.000292112
4.32777e-05
3.90242e-05
9.34702e-06
4.75455e-05
2.74935e-07
0.000609251
1.78702e-05
6.17966e-07
0.000201183
2.62664e-05
9.04396e-06
1.31108e-05
4.55371e-07
0.00416077
7.40799e-06
0.00428255
3.14129e-05
1.9147e-05
0.00014856
0.000962635
0.00282114
4.83088e-05
0.0024064
0.00298882
6.09894e-05
5.96897e-05
34.3342
0.000424733
1.71993e-07
2.41555e-05
0.00238648
0.000286126
1.58011e-05
0.00519979
0.00213908
0.00128364
0.00355071
1.28273e-06
1.13899e-07
7.79712e-07
2.64303e-05
7.27973e-07
0.00020397
0.00341568
3.40537e-06
0.00341432
7.18897e-07
8.00409e-07
1.47547e-05
0.00299635
0.00188254
5.77214e-05
1.96037e-05
0.00291495
7.83215e-06
2.24604e-06
2.46721e-05
1.72572e-06
0.0870283
1.94666e-05
0.00145084
0.000488552
3.15183e-05
0.00083887
4.9837e-05
3.99202e-06
1.88678e-05
5.56482
2.90898e-05
0.00181643
3.34813e-05
3.34585e-06
1.85907e-05
0.00964372
0.00773654
3.6811e-07
2.37499e-05
0.00320224
1.87135e-05
0.000163932
0.000449027
0.00264781
0.000434361
2.60575e-05
2.58321e-07
0.00287394
0.000984049
0.00353033
1.31801e-05
0.0064345
7.98282e-05
9.0774e-06
1.41974e-08
6.47105e-06
0.000315407
0.00293164
7.32024e-05
0.00247776
2.81746e-05
9.50063e-06
2.8939e-05
0.000521235
1.19625e-05
9.35068e-06
2.24355e-05
5.6641e-05
2.44412e-05
0.00319048
7.82079e-06
3.41562e-05
0.00048811
1.19437e-05
6.38308e-05
0.00156626
0.00016491
6.28247e-05
9.41928e-06
2.13527e-05
3.2155e-05
4.41514e-06
9.41668e-07
2.75279e-05
0.0436304
5.94653e-07
7.15486e-07
5.85172e-05
1.06381e-05
4.81657e-05
4.37236e-05
0.00269537
0.00047911
3.04474e-05
1.39093e-06
2.66477e-07
0.0329058
3.94456e-05
1.18733e-05
2.12659e-05
0.00333895
9.4783e-06
0.00337854
0.00295032
2.77827e-07
0.00315435
0.00095655
2.48883e-06
1.55805e-05
0.000769981
5.20176e-05
1.50273e-05
2.35181e-07
3.12807e-07
5.42055e-08
1.41524e-07
8.91449e-08
1.3736e-07
2.64911e-07
1.66933e-07
1.88765e-07
5.8245e-05
0.000298904
6.94084e-06
7.46498e-07
0.00325238
2.04748e-06
46.2076
7.13834e-06
6.00377e-07
3.19521e-05
1.70327e-07
0.00329733
1.40055e-06
3.84411e-05
4.65855e-06
5.63396e-05
5.87717e-05
6.25355e-07
0.000202236
2.28135e-05
4.9247e-05
1.07711e-05
2.98006e-05
0.000287121
4.33149e-05
5.28602e-05
7.91473e-08
4.28192e-06
1.95521e-05
0.000723484
3.42888e-05
5.15194e-05
0.00400389
1.49194e-05
1.87373e-05
1.23484e-05
1.35269e-07
8.09646e-07
1.1523e-05
2.04312e-05
5.8039e-06
3.19402e-06
0.00224526
1.60365e-06
0.0136298
3.20723e-05
0.000703069
0.000762126
9.62764e-06
0.0129646
0.000208868
2.39418e-05
1.2451e-07
0.000182477
7.42763e-07
0.00282507
0.00412892
8.86174e-06
9.54561e-06
8.2323e-06
8.21788e-06
0.0122121
7.54122e-05
2.35605e-05
2.65025e-05
0.000992719
3.48136e-05
6.52635e-07
0.000475908
6.17392e-06
1.83779e-05
4.9781e-05
1.92426e-06
0.000105521
4.30396e-05
2.00215e-05
0.000102752
3.866e-05
9.94905e-06
0.00268438
2.08311e-05
0.00382025
0.0127292
0.0032298
0.00356142
1.88702e-05
4.86875e-07
4.06078e-05
0.00181369
9.92347e-06
9.99045e-06
1.83131e-05
1.24106e-05
0.000691055
1.93883e-07
1.21403e-06
4.07422e-05
0.00316489
0.000537916
2.21315e-05
0.00286792
4.32604
1.40688e-05
0.000215657
0.00162154
0.000786189
0.002785
9.47701e-07
0.0128342
4.16966e-05
2.61435e-05
0.00320328
0.00666047
9.51207e-06
6.59475e-06
5.24674e-06
8.33888e-12
4.11167e-05
7.89636e-05
1.94528e-06
6.24354e-06
1.25455e-07
0.000963342
3.0073e-06
2.88679e-05
0.000192568
1.04805e-05
1.54831e-05
8.19434e-06
4.68671e-05
0.00289368
6.02527e-05
2.94507e-06
2.55112e-05
1.38568e-05
3.73562e-05
0.000121799
1.60837e-05
0.00320399
6.74341e-06
3.25381e-05
1.07192e-05
3.34697e-06
3.09938e-06
0.000128748
4.27397e-05
0.00311232
3.09579
1.3324e-05
0.00138679
1.61016e-05
7.11824e-05
6.44022e-06
4.35895e-06
2.57152e-05
4.7903e-06
0.00168457
3.64019e-05
0.000810501
2.57451e-05
4.62415e-05
3.30079e-05
2.11475e-05
0.00365498
1.87656e-05
3.83505e-05
2.18056e-06
4.48858e-06
0.000305769
7.37508e-07
4.90243e-06
4.28016e-06
6.05795e-05
5.4874e-05
2.28441e-05
0.000643499
2.75928e-05
1.89827e-05
0.000416023
0.00623796
2.10259e-05
4.2873e-05
0.000526403
0.000227001
0.000357503
0.00363432
0.00339448
0.00213942
1.45621e-07
3.72171e-05
2.25099e-11
0.00354129
1.23454e-06
4.63477e-05
4.61471e-05
0.000184086
7.3512e-05
0.00120851
2.41999e-05
4.57517e-05
0.00059912
9.2337e-05
0.00335822
7.52563e-05
0.000954659
0.00286411
9.8314e-06
2.21385e-05
1.01971e-05
0.000207468
1.05416e-06
3.00718e-06
5.20949e-06
6.90567e-06
3.78019e-05
8.78957e-05
4.27991e-06
4.03874e-06
3.17055e-05
4.06682e-05
3.68415e-07
9.79539e-06
2.67518e-05
2.19859e-05
0.001441
0.000263551
8.18588e-05
7.04404e-06
0.00209272
0.000939786
5.83393e-05
0.00297332
5.3936e-05
3.04522e-05
0.00333135
0.00599896
0.147248
8.56153e-06
0.000362855
0.00136587
3.49407e-05
0.00212238
0.00280974
2.85342e-05
2.8802e-06
4.55401e-06
1.02111e-05
6.62162e-07
3.69282e-05
5.10954e-07
7.63943e-07
0.00980239
0.00748689
2.42491e-05
0.00364216
5.32923e-05
1.41e-05
0.000559922
2.14849e-05
0.000102166
0.00562792
3.93907e-05
5.64938e-05
8.76326e-06
8.61132e-06
0.0562763
2.11354e-05
0.000725041
5.13656e-05
1.89233e-05
1.0086e-06
1.79836e-06
4.03238e-05
0.00299407
8.55288e-06
4.014e-05
1.35257
4.31756e-08
0.00131947
1.46044e-05
0.00186729
2.20385e-05
0.000746656
0.000143548
3.40554e-05
8.50894e-06
3.03345e-05
3.92568e-05
0.00304598
9.85007e-06
8.43581e-06
7.86986e-05
2.45436e-05
0.000784797
2.0075e-05
2.56218e-05
2.8067e-06
1.17993e-06
0.00371849
0.00291257
6.59523e-05
3.93833e-05
4.17564e-05
3.46351e-05
3.97632e-05
2.1243e-05
0.00185607
8.12909e-07
1.95602e-05
0.00231845
2.05958e-05
0.0353478
5.34664e-05
2.86216e-05
4.75541e-07
0.00527516
2.13425e-05
8.91811e-06
7.37901e-06
3.04962e-07
5.0593e-05
1.67686e-05
4.19686e-05
7.52977e-05
5.12407e-06
5.71462e-05
3.10691e-06
7.97881e-06
2.14888e-05
1.04616e-05
8.24741e-06
2.861e-05
5.49787e-06
8.24969e-07
8.59904e-07
5.24259e-05
4.73021e-06
1.8631e-06
0.00132876
5.58632e-06
1.13643e-05
0.00816592
0.000133549
8.08511e-06
0.00398345
0.00660013
5.00064e-05
2.58288e-05
0.000909061
0.00528049
1.4486e-05
0.000518739
0.00614518
4.72375e-05
0.00716272
9.87725e-08
2.09074e-05
1.86254e-07
1.60132e-06
4.07895e-05
0.000549541
2.92006e-06
2.85409e-05
7.42018e-05
0.00014748
2.86227e-05
3.87877e-07
2.21455e-05
6.70862e-06
1.64632e-05
8.69757e-08
2.01474e-05
1.1138e-05
8.38822e-07
1.92626e-05
4.55634e-07
0.00196344
0.00322052
1.26374e-05
7.06527e-07
0.000487046
0.00018072
0.00254366
0.000480982
3.8151e-05
4.82186e-05
1.085e-05
0.000473925
9.75371e-07
0.000224368
3.43139e-05
9.82821e-08
6.85935e-06
1.82031e-05
2.39347e-06
1.91449e-05
8.08706e-07
4.61672e-05
0.00441398
2.17755e-05
1.14436e-05
9.13604e-06
0.000159232
3.60045e-05
3.6388e-05
0.0493781
2.8951e-05
2.122e-05
9.83927e-07
1.21641e-05
1.76462e-05
0.000423435
2.01082e-05
0.00522773
0.00305146
0.00447344
6.97264e-07
0.00102963
4.3688e-07
4.33644e-07
2.24955e-05
5.84077e-07
1.74697e-05
2.56224e-05
2.5321e-05
1.34117e-05
0.000152089
1.95653e-06
1.82113e-05
7.29683e-07
0.00555204
9.22174e-06
5.76753e-05
5.59235e-07
0.000812459
3.33799e-05
1.2765e-05
0.00479651
0.00761685
2.79499e-08
0.00528537
9.37432e-07
1.31226e-05
8.1168e-06
2.71794e-05
3.64777e-05
1.50813e-05
1.09411e-05
0.00278638
1.00793e-05
4.44135e-05
0.00012502
4.09539e-05
9.9536e-07
2.04875e-05
3.33197e-05
3.42008e-05
0.00394629
4.31302e-05
1.88769e-05
0.00136361
8.08272e-06
2.90141e-05
2.04734e-05
5.16838e-05
0.000952629
0.00354289
6.56688e-07
0.00061286
5.75361e-07
6.69052e-06
0.000514282
0.000104777
5.85969e-05
5.13038e-07
8.03443e-06
8.83286e-06
2.40129e-05
0.000162232
0.000750282
3.99715e-06
2.14281e-05
2.11151e-05
3.49334e-05
0.000813217
1.44971e-05
0.470548
0.000210859
1.79139e-06
3.04564e-05
2.01799e-06
5.24528e-08
8.7283e-06
3.99255e-07
5.55066e-06
0.00335596
8.31017e-06
7.62188e-05
0.0300343
3.24701e-06
0.00281747
0.00964222
0.0027919
2.20239e-05
1.69851e-05
2.3409e-05
3.6549e-06
0.00120029
1.20988e-06
4.61051e-06
2.1416e-05
2.69587e-05
0.000709617
3.28308e-05
4.59001e-05
1.43586e-05
0.00496651
0.00283787
2.88593e-05
2.55037e-05
3.26228e-05
2.48063e-06
4.94967e-11
0.000822762
8.83325e-07
2.08801e-11
6.82113e-06
1.88106e-05
1.44741e-05
5.13031e-05
0.000795363
2.08569e-05
3.4795e-05
1.5697e-05
4.2141e-05
8.54527e-07
2.28131e-05
0.000171227
2.70807e-05
1.38454e-05
1.36665e-06
0.000539742
7.89626e-07
8.20444e-07
2.28919e-06
0.000835084
0.000878931
3.95715e-05
0.000448518
0.00325124
5.31705e-05
3.01943e-07
0.00330739
9.5203e-06
1.11496e-06
4.98125e-07
1.85421e-06
0.000869854
0.00141682
0.000569596
4.5773e-05
8.90188e-06
3.63186e-06
2.28615e-05
2.27847e-05
8.25915e-07
0.000271272
9.10197e-05
0.00242487
0.00362905
2.20893e-05
5.29724e-06
4.17603e-08
0.00185943
2.86854e-05
4.77331e-05
6.77447e-07
1.35114e-06
4.78849e-05
0.00261583
0.00283569
3.0277e-05
3.90025e-05
0.000878543
1.55786e-05
1.54044e-05
0.00425036
7.40103e-07
2.34524e-05
0.00297882
0.00615397
1.99401e-06
0.00337099
2.37187e-05
0.00223016
3.86792e-07
7.58554e-07
5.28907e-06
2.1208e-05
9.79272e-06
0.00367314
1.71546e-05
8.51221e-08
1.51223e-05
1.92698e-05
1.58975e-05
3.63745e-07
9.79863e-06
3.926e-05
4.70762e-05
6.26301e-06
0.0012104
1.77014e-05
5.17479e-06
1.38508e-05
6.87824e-06
2.30745e-07
0.00342306
7.70745e-07
4.37344e-05
3.97444e-10
3.60892e-05
0.000526437
1.43687e-07
0.00310931
0.00299167
0.00781849
1.075e-07
1.28806e-05
1.75766e-06
2.71456e-06
2.22724e-05
8.70615e-06
2.98036e-05
0.0079245
3.40919e-07
1.89361e-05
3.22846e-05
1.60658e-05
2.19373e-05
1.67599e-05
0.00219829
2.10154e-05
3.37773e-06
7.96154e-07
6.31186e-05
6.07642e-06
2.0041e-05
2.83571e-06
8.22235e-07
2.20629e-05
4.17309e-05
1.61488e-05
7.77339e-06
0.00925487
1.2924e-05
2.21748e-06
2.84574e-06
1.98371e-05
0.000703737
0.00181279
0.00371782
1.70497e-05
0.000922282
8.4966e-06
4.03232e-05
0.00221827
2.26432e-05