/*--------------------------------*- C++ -*----------------------------------*\
  =========                 |
  \\      /  F ield         | OpenFOAM: The Open Source CFD Toolbox
   \\    /   O peration     | Website:  https://openfoam.org
    \\  /    A nd           | Version:  8
     \\/     M anipulation  |
\*---------------------------------------------------------------------------*/
FoamFile
{
    version     2.0;
    format      ascii;
    class       volScalarField;
    location    "3e-05";
    object      epsilon;
}
// * * * * * * * * * * * * * * * * * * * * * * * * * * * * * * * * * * * * * //

dimensions      [0 2 -3 0 0 0 0];

internalField   nonuniform List<scalar> 
23640
(
8.2205e+08
3.65734e+09
2.3825e+08
2.83758e+09
5.08568e+09
1.57919e+10
3.38491e+09
2.49978e+09
3.19051e+10
1.82603e+11
4.73794e+09
1.08247e+10
6.22155e+08
4.26011e+09
9.4409e+10
1.37006e+10
4.17758e+08
3.72212e+10
1.32836e+10
3.25614e+10
6.72744e+09
7.27748e+08
6.94174e+09
1.52511e+10
4.00747e+09
4.94525e+09
4.90416e+10
3.13583e+10
2.77073e+08
1.29182e+09
4.21848e+08
1.04169e+09
6.72449e+09
2.11092e+10
3.61423e+10
1.47667e+11
4.29235e+08
2.99739e+08
1.80271e+09
7.72824e+09
1.52328e+10
3.07781e+10
4.49951e+09
1.05318e+09
2.43882e+09
8.05559e+10
5.41782e+08
6.40675e+09
1.76694e+11
2.36267e+09
2.27563e+08
2.95766e+10
1.70521e+11
3.26786e+08
2.79374e+09
4.95803e+11
2.89269e+10
7.64784e+09
1.25953e+09
4.43767e+09
4.10018e+08
5.73172e+10
3.12286e+09
2.64635e+10
1.6061e+09
2.6981e+10
8.55941e+09
4.70312e+09
6.32733e+10
4.54898e+09
7.91028e+09
2.10615e+10
1.42121e+10
3.39554e+08
1.32974e+10
3.60275e+09
6.95296e+11
5.96987e+08
1.28083e+10
3.14715e+09
8.372e+10
7.42409e+10
1.40648e+09
1.40889e+09
1.58513e+09
2.9794e+11
3.04534e+10
1.7524e+10
2.18518e+10
8.1916e+10
2.026e+09
8.17616e+09
7.66797e+10
1.28912e+10
2.93421e+10
1.13792e+09
2.47887e+10
3.5283e+11
8.9359e+09
1.00049e+11
7.07715e+10
3.20679e+08
2.27425e+10
1.6741e+08
2.89239e+10
2.72623e+08
5.72706e+09
2.0566e+08
1.20155e+10
1.0513e+10
3.41987e+08
1.3746e+10
1.23e+10
1.46795e+10
4.38358e+11
1.23832e+08
1.02783e+11
3.05391e+08
7.77791e+08
1.46117e+09
3.3205e+10
9.21637e+08
2.84706e+11
8.63231e+08
5.17693e+10
1.0461e+10
1.77176e+08
1.34495e+11
1.55533e+10
1.28832e+10
3.25543e+10
6.06293e+10
6.16117e+08
5.32864e+10
1.95103e+08
2.0608e+10
5.32891e+09
4.42321e+09
4.92035e+09
2.17912e+10
9.87024e+09
2.966e+10
1.54516e+10
4.6992e+09
1.92466e+10
6.75192e+09
4.17549e+09
5.42354e+09
2.14863e+09
6.43416e+10
2.34673e+09
1.53297e+10
1.5089e+09
2.75675e+09
4.45027e+10
1.79469e+08
3.42437e+09
1.67191e+10
8.03601e+09
4.92393e+10
7.9979e+10
2.21941e+11
1.52368e+11
6.50997e+09
1.19951e+08
1.03177e+08
6.27846e+09
1.62655e+11
5.23569e+09
5.82723e+10
6.10417e+09
4.47979e+11
1.30964e+10
1.13489e+10
3.5769e+09
3.853e+09
1.31501e+10
4.35491e+11
3.13139e+09
1.30775e+09
2.41727e+09
2.0411e+11
4.28539e+09
3.14491e+10
3.12768e+08
5.31375e+10
5.14652e+10
5.58087e+10
5.82396e+09
3.37328e+10
3.70656e+10
4.62801e+09
1.19206e+09
1.49811e+09
2.42163e+08
1.07468e+10
2.98905e+10
3.24857e+10
2.01406e+11
7.70988e+10
8.12602e+09
7.42235e+08
4.06581e+08
2.987e+10
1.06114e+10
1.55398e+09
2.10507e+11
6.91432e+09
3.13572e+11
5.37937e+09
4.51542e+09
4.68545e+09
1.03668e+09
1.57232e+09
1.4884e+10
9.25743e+09
7.11579e+09
3.16337e+10
6.42267e+09
5.43776e+08
1.07594e+09
4.78817e+09
8.02572e+09
1.13694e+10
1.40473e+10
1.14338e+10
7.05925e+09
9.26925e+08
7.66554e+08
1.99503e+09
8.59966e+08
2.43228e+08
2.81717e+10
5.01935e+09
1.62747e+10
7.11783e+10
7.30494e+09
9.37632e+09
2.1206e+09
1.22894e+11
7.07848e+10
4.13754e+11
1.57941e+10
2.8102e+10
2.79637e+09
2.51072e+08
1.59108e+09
3.08428e+11
2.94222e+09
1.30193e+10
4.12639e+09
6.27742e+09
5.26153e+08
3.66314e+09
1.32142e+09
6.93298e+09
6.71576e+08
2.46712e+08
4.65356e+09
5.2874e+09
2.77398e+09
3.45155e+08
6.1452e+10
1.11756e+10
3.77184e+08
4.40022e+09
4.82322e+10
8.14269e+09
1.34201e+09
3.39502e+10
5.59879e+10
1.81461e+08
3.87578e+10
5.21676e+09
1.48608e+11
2.076e+10
3.05592e+08
9.50965e+08
2.55762e+10
1.12079e+10
1.08268e+10
8.10178e+08
5.98773e+10
4.35553e+09
1.56286e+10
6.17669e+10
5.34925e+09
4.41304e+10
4.53913e+09
4.43483e+09
1.79431e+09
3.41922e+08
9.24705e+09
6.28035e+09
5.02147e+09
4.51068e+09
1.23009e+10
3.44072e+08
6.17213e+09
8.25299e+08
1.66846e+11
2.53053e+10
8.15484e+08
7.99877e+09
5.69701e+09
1.45026e+08
6.17271e+10
7.37556e+10
2.77151e+09
1.55445e+10
1.92135e+08
1.04891e+11
3.55301e+09
1.2891e+10
8.41717e+09
4.90693e+10
5.14625e+10
3.06695e+08
2.83455e+10
1.29079e+10
1.14458e+09
2.03306e+10
3.67403e+10
3.06301e+10
1.95753e+08
1.47857e+11
3.49566e+10
4.5938e+09
1.4774e+09
3.84466e+08
7.52806e+10
2.50578e+09
3.19868e+10
4.19829e+10
3.96618e+09
7.79755e+09
1.79027e+11
4.80087e+10
4.187e+09
5.9987e+09
3.43212e+11
2.32096e+10
4.39858e+10
1.06691e+09
4.97187e+09
4.03727e+10
6.09319e+10
9.83677e+09
1.13215e+10
2.70768e+10
5.19581e+09
1.423e+11
2.17256e+08
3.01267e+08
3.46284e+10
1.24426e+08
1.98905e+09
3.28018e+08
3.20366e+09
4.71151e+09
5.03754e+10
5.90824e+09
2.22388e+10
7.87047e+08
9.33231e+09
2.72314e+08
1.51177e+08
7.21632e+10
1.28488e+10
1.26907e+09
2.68988e+11
5.16543e+10
1.85536e+08
8.16655e+09
5.12072e+10
2.09381e+08
7.39389e+09
7.40546e+08
4.68996e+09
4.64039e+10
1.40762e+10
5.11344e+10
8.80752e+09
2.27902e+10
1.16786e+10
1.98835e+08
1.10477e+11
9.83854e+07
1.04434e+10
1.67309e+08
3.67277e+10
2.36985e+10
4.45813e+11
1.62319e+11
6.21296e+10
1.00983e+10
1.05757e+09
3.56699e+08
5.00529e+08
6.8284e+10
1.92989e+09
1.8979e+10
3.73665e+10
1.70906e+08
5.9219e+08
6.49812e+09
3.83494e+09
2.8086e+08
8.53461e+10
8.21243e+09
3.0827e+10
2.95894e+09
4.11832e+09
5.41204e+10
4.12417e+09
1.38937e+10
6.34728e+10
7.64276e+08
5.03331e+10
2.44472e+10
4.49544e+09
3.6537e+10
6.24875e+09
3.17686e+10
2.0114e+11
1.49538e+08
1.01385e+09
2.79982e+11
5.81218e+09
3.17284e+09
4.21902e+08
2.31765e+09
5.53688e+09
7.37848e+09
3.96378e+10
4.85843e+09
2.5015e+11
8.64243e+10
1.57925e+11
9.42834e+09
4.2449e+10
3.37364e+09
1.6436e+11
1.95616e+11
4.3412e+10
7.41213e+09
6.58643e+10
6.21218e+10
6.87138e+09
7.42654e+10
1.85899e+06
8.49075e+09
3.55489e+09
2.28774e+10
6.65419e+10
1.97695e+08
3.89111e+09
5.99983e+10
6.03924e+09
9.29803e+10
4.90179e+10
1.52425e+10
1.39394e+10
1.534e+07
8.68702e+10
1.47268e+09
1.15897e+11
6.6916e+11
9.17928e+10
3.76843e+10
3.03399e+10
1.5054e+09
2.68693e+09
1.20843e+09
1.88678e+09
6.54417e+10
4.30276e+09
5.98465e+07
1.01554e+11
4.82601e+09
7.04907e+09
3.44495e+08
2.2992e+10
1.91079e+11
5.14224e+10
3.31136e+11
8.36712e+09
1.15738e+09
4.33208e+08
4.84914e+08
4.5776e+10
7.50467e+09
5.59822e+08
1.47006e+10
4.6833e+09
6.48735e+09
7.32461e+10
8.80782e+10
3.92926e+11
5.2517e+08
1.08663e+09
3.30082e+09
1.54067e+08
7.30496e+09
1.33905e+09
1.30551e+09
6.55566e+10
1.77133e+08
3.28669e+08
6.2581e+08
7.27839e+10
1.06813e+09
1.92555e+11
2.82291e+11
7.75831e+09
1.45532e+10
1.31824e+10
2.57552e+08
2.66651e+10
3.9833e+09
3.36201e+10
4.014e+10
1.19873e+06
1.09323e+11
4.52069e+09
1.27023e+10
8.87641e+09
4.80778e+10
1.36523e+10
1.2442e+09
7.41884e+09
1.30149e+10
1.0122e+11
2.48234e+10
5.30644e+11
7.89118e+08
1.70092e+11
5.99472e+10
2.09089e+08
3.91126e+10
4.89085e+09
1.37802e+09
4.88441e+09
6.10049e+09
3.648e+08
4.35013e+09
1.01463e+11
1.85566e+10
2.68939e+09
2.73769e+09
1.35116e+11
5.12321e+09
7.59015e+11
6.04587e+08
1.59434e+11
9.06893e+08
5.71064e+09
4.27341e+11
5.35626e+09
3.38715e+09
2.60645e+09
5.24162e+09
7.80656e+09
7.88086e+10
1.91545e+10
7.30904e+09
1.28259e+10
9.39205e+09
3.87583e+11
1.17717e+11
2.67847e+06
4.69736e+09
4.59769e+09
2.51451e+08
2.88156e+08
1.29962e+10
2.86565e+11
3.0143e+11
3.91612e+10
4.76282e+08
2.19791e+09
5.98787e+09
3.11892e+08
4.93099e+10
1.2494e+10
2.09832e+10
3.52455e+09
3.81275e+10
4.85203e+09
9.24295e+09
2.94555e+09
3.69544e+09
1.42908e+10
2.53988e+10
1.28697e+09
2.76435e+10
2.993e+10
5.49368e+10
1.52936e+09
9.48026e+10
4.15321e+09
6.68707e+09
5.04338e+09
1.06253e+11
1.13201e+09
1.88008e+11
6.92802e+10
1.30325e+09
1.37246e+10
9.12704e+09
1.33255e+09
2.41748e+09
1.0098e+10
1.79141e+09
1.78269e+10
6.71933e+10
4.62862e+11
8.67234e+09
3.54137e+08
1.0162e+09
1.08709e+10
1.25909e+10
2.0974e+10
2.92491e+09
5.66863e+09
3.05022e+10
6.78844e+09
7.79087e+09
1.2076e+09
1.59371e+11
2.59772e+08
6.89991e+09
2.21684e+09
1.2686e+09
3.83003e+08
2.83134e+09
1.11316e+09
7.24977e+09
3.43842e+08
8.33624e+10
2.59304e+10
2.92121e+11
5.34245e+09
5.81604e+08
2.13647e+11
6.12206e+09
8.02498e+09
5.6432e+10
1.97518e+08
1.01008e+10
8.92145e+10
1.18937e+09
2.14507e+10
1.86809e+09
3.08829e+10
1.01902e+10
3.71745e+11
8.20694e+09
6.57801e+08
2.97692e+09
2.25414e+10
9.28123e+10
1.20024e+08
1.67605e+11
7.2679e+08
7.10176e+08
1.65098e+09
1.53369e+09
1.92731e+10
1.17087e+10
9.39683e+08
8.29954e+09
7.20379e+09
8.46392e+10
2.42468e+10
3.75636e+08
8.00738e+08
5.33085e+09
4.8718e+08
3.26589e+09
4.68326e+09
4.86315e+09
5.84464e+09
1.3059e+09
1.58629e+10
1.58031e+08
3.36639e+09
1.90579e+10
9.15894e+10
9.89241e+08
2.67266e+08
1.8829e+11
8.4088e+10
2.56604e+09
4.20519e+10
4.14521e+08
3.78744e+10
1.81485e+10
8.40869e+09
1.17698e+10
4.17625e+09
2.51493e+10
2.35428e+10
1.63679e+10
2.25271e+08
2.967e+10
1.20747e+10
5.93798e+10
5.75376e+09
8.27116e+10
1.24458e+10
1.02769e+10
3.01756e+11
4.90953e+08
5.62901e+08
1.40806e+11
2.70463e+10
5.1755e+09
7.59338e+09
1.48354e+11
4.67247e+10
6.43588e+10
5.15464e+10
8.09809e+08
4.23922e+10
8.80149e+07
3.34596e+08
2.48417e+08
2.34974e+10
2.77844e+09
6.74714e+09
3.394e+08
3.36057e+09
6.93192e+09
1.74793e+08
1.10662e+10
2.89777e+11
1.42403e+10
3.26887e+09
7.37574e+09
4.12045e+09
1.58444e+10
3.23015e+09
2.49784e+11
1.60473e+08
8.4292e+10
3.60013e+08
6.59158e+10
1.64946e+08
1.13313e+09
4.35024e+10
1.44172e+08
3.09265e+09
8.92156e+08
2.82065e+09
5.71662e+07
4.65776e+10
2.27142e+08
3.21227e+10
7.09584e+09
2.74549e+08
1.27221e+09
8.55679e+10
2.74307e+09
3.51649e+09
3.33211e+11
4.01756e+09
2.10405e+10
1.83442e+10
4.12749e+10
4.29102e+10
1.82953e+10
9.32304e+10
1.2997e+10
2.13463e+10
6.48355e+08
4.60111e+09
4.02417e+09
3.60135e+10
2.47969e+11
4.36084e+10
8.41436e+08
6.57315e+08
2.6802e+11
2.8915e+11
8.16396e+09
5.5677e+10
1.51768e+08
3.30718e+10
1.22884e+10
1.18885e+09
1.28403e+11
1.95539e+10
1.25215e+09
1.37194e+09
8.36623e+09
5.04779e+09
3.40769e+09
6.57058e+08
7.23293e+09
2.02248e+10
3.49126e+10
4.65864e+09
3.26746e+08
6.66799e+10
9.00983e+09
5.22583e+09
1.24326e+10
3.86703e+09
1.06554e+09
1.89158e+11
1.56758e+10
5.18949e+09
4.08778e+09
1.95924e+11
4.55305e+10
3.25214e+09
1.53158e+11
9.21436e+10
1.34954e+10
4.60074e+09
7.84636e+11
9.76975e+10
3.18271e+10
1.4743e+11
5.64181e+09
3.26889e+10
3.93189e+08
4.76124e+10
7.98573e+10
9.37109e+08
4.63049e+10
3.1789e+08
2.45541e+10
1.25999e+10
4.20655e+09
1.70547e+10
4.19031e+10
6.12618e+08
7.58809e+08
2.4449e+10
2.78892e+10
5.39863e+09
2.12369e+10
1.7014e+08
1.93871e+08
2.75431e+09
9.54508e+08
7.0388e+09
5.49024e+09
1.09232e+09
5.84499e+08
8.81034e+10
1.61455e+09
1.49949e+10
2.4657e+06
7.09272e+09
6.18509e+10
2.25791e+10
8.69386e+10
9.98458e+10
7.73689e+08
1.45901e+09
1.7909e+10
5.31843e+10
5.6361e+08
5.52011e+09
3.36177e+08
2.02768e+09
1.03449e+11
1.68618e+11
5.98806e+09
3.36103e+09
5.42061e+09
1.45898e+08
2.57266e+08
2.845e+10
2.62668e+11
1.70838e+08
1.62069e+08
4.11118e+10
9.85006e+08
2.49675e+10
4.67121e+08
2.60503e+11
3.96229e+10
3.1914e+09
3.22026e+10
3.34541e+09
2.01123e+09
8.19613e+08
5.25419e+10
1.41259e+10
3.30354e+11
1.37616e+10
4.33605e+10
3.49464e+11
4.82069e+09
7.19888e+08
1.37732e+10
8.57325e+09
2.61692e+11
4.2419e+09
4.49268e+08
6.89168e+10
5.69295e+08
6.10859e+10
4.59313e+09
1.67078e+10
1.79744e+08
1.75261e+11
1.75164e+08
1.90311e+11
4.98112e+10
2.11623e+10
1.12418e+09
5.01931e+10
4.25646e+09
9.76258e+09
3.56419e+09
3.01575e+10
2.25499e+10
1.22865e+09
1.23639e+10
1.41404e+08
1.18309e+11
2.71394e+08
4.24854e+09
1.8492e+11
1.65304e+10
2.50769e+10
1.32157e+10
1.06271e+08
2.29844e+10
2.65783e+09
6.99398e+10
1.30044e+11
1.23187e+09
8.3425e+09
3.12611e+09
4.28165e+11
1.6894e+08
2.14343e+11
1.67982e+10
3.52102e+09
7.3025e+10
4.67701e+09
6.5524e+10
1.9924e+08
3.52117e+08
1.22655e+10
4.85227e+09
2.22258e+08
1.54008e+11
2.51874e+09
9.95453e+08
6.09686e+09
1.49487e+09
4.6157e+09
1.75662e+08
2.78468e+10
1.85467e+09
1.05112e+10
1.34387e+09
1.38099e+10
4.31183e+09
6.14483e+09
8.61489e+09
1.32526e+09
5.02191e+09
6.55929e+09
7.64987e+08
4.67858e+09
4.93463e+09
1.98383e+11
6.41676e+08
1.86318e+10
1.60081e+11
1.921e+10
3.879e+09
4.713e+11
2.15218e+09
1.24271e+10
6.46457e+09
5.10341e+09
1.33641e+10
7.05959e+08
7.86452e+08
7.35548e+09
1.35727e+10
1.37044e+09
3.37857e+09
4.63566e+09
1.91022e+10
5.84671e+09
3.42041e+09
7.76066e+09
1.28222e+09
1.3207e+10
3.66544e+10
3.53446e+10
1.28833e+09
3.61364e+10
3.51696e+10
7.70633e+10
5.92631e+10
1.15628e+11
2.05977e+08
3.12962e+11
3.06823e+11
4.44335e+08
1.39727e+09
3.89229e+08
3.20399e+09
1.34552e+10
3.85954e+10
2.43329e+09
3.60153e+09
2.46734e+10
8.38535e+11
1.20245e+10
1.7801e+09
2.6489e+08
8.95169e+09
3.70424e+10
9.12926e+08
3.60084e+09
4.3657e+09
8.29116e+10
5.62102e+09
1.78303e+10
4.28158e+10
3.01349e+09
2.51518e+10
2.96214e+08
1.80782e+09
7.05407e+08
7.36305e+10
2.33113e+09
5.88733e+08
1.51909e+09
4.48211e+09
1.20749e+11
3.30578e+09
2.08733e+08
9.21929e+10
3.7996e+10
6.48055e+10
1.93795e+09
2.93235e+10
2.34243e+09
9.1613e+09
2.42744e+09
1.09785e+10
1.29425e+10
1.40438e+09
3.31469e+10
3.15624e+09
6.60955e+11
1.78067e+10
1.08186e+10
1.55802e+10
8.17316e+08
2.90247e+09
5.58771e+09
1.85614e+09
4.88089e+08
6.1236e+10
6.77145e+10
2.93007e+10
5.59888e+09
1.85105e+08
1.78552e+11
3.34706e+11
2.03596e+11
4.05973e+09
5.34526e+10
3.97374e+08
2.54151e+09
8.84382e+09
6.12571e+08
1.48521e+11
3.37538e+10
5.06624e+10
4.86899e+11
1.00808e+11
8.95966e+10
1.16987e+10
1.41485e+10
1.60414e+10
3.02467e+10
3.83724e+09
7.79799e+08
1.11475e+11
4.60147e+11
8.80175e+08
7.34632e+08
4.33367e+08
1.05018e+11
4.30647e+09
1.29025e+10
5.80281e+08
8.76984e+08
2.78586e+09
3.42118e+08
6.59214e+09
6.42126e+09
1.01223e+09
2.9692e+09
6.45246e+10
1.9727e+10
7.41117e+09
4.46791e+08
4.64064e+08
3.20361e+09
7.19631e+09
7.96838e+10
4.3844e+10
3.2722e+11
3.37266e+10
5.99214e+09
5.76705e+08
1.25209e+09
2.31246e+08
3.78823e+08
6.73507e+08
1.3871e+09
2.04404e+10
1.36559e+09
2.28267e+09
1.22461e+10
2.78773e+11
2.73877e+11
3.70961e+09
1.71976e+09
1.94487e+08
9.37965e+08
5.42938e+09
1.54261e+11
2.74714e+08
2.50908e+10
2.59109e+11
1.05878e+08
4.54619e+09
5.55636e+09
2.36414e+11
2.79886e+09
7.79966e+09
4.43811e+08
5.17001e+10
3.58998e+10
3.42273e+08
1.55683e+09
2.3613e+09
2.21903e+10
2.30157e+08
7.50374e+10
1.68189e+11
3.16941e+10
5.75762e+09
1.93365e+10
1.93391e+11
2.86628e+10
3.92308e+08
1.22821e+11
4.75703e+10
1.78254e+10
2.20665e+10
2.23647e+10
4.04904e+10
2.75959e+10
2.68322e+11
4.85857e+10
5.1644e+11
1.77837e+11
8.28468e+10
1.29442e+09
1.18236e+10
5.65071e+10
3.78561e+09
7.72486e+08
1.32881e+10
1.00519e+10
2.05778e+08
4.14681e+08
8.83766e+09
1.94951e+11
1.32539e+08
1.44486e+10
6.70087e+08
2.40592e+10
1.21887e+09
6.46411e+09
5.29921e+09
2.74919e+09
8.39194e+09
3.2119e+08
2.26222e+06
3.25531e+09
4.10215e+09
5.0283e+09
3.32601e+10
4.0315e+09
1.15939e+10
1.69369e+08
3.46384e+10
2.51875e+11
1.09424e+10
6.3165e+11
4.43127e+09
1.34312e+08
1.21757e+10
6.47288e+09
7.81537e+09
1.37846e+09
6.21042e+09
4.22481e+08
3.71359e+10
7.78301e+08
6.24029e+08
3.64582e+09
2.80347e+11
1.3733e+09
4.02311e+10
5.03237e+09
1.58568e+10
3.09929e+09
8.30459e+10
2.5726e+09
4.69437e+10
9.98888e+10
3.02714e+09
1.70781e+10
1.41704e+09
9.96894e+07
4.23841e+09
1.03327e+10
2.87983e+08
6.73605e+08
7.12583e+09
1.17134e+10
4.55045e+10
1.20537e+10
6.11994e+09
2.65821e+10
5.08902e+08
6.64157e+09
3.64104e+10
5.94077e+09
3.14903e+11
1.07887e+11
2.23958e+11
3.51575e+10
1.99103e+08
2.0192e+11
3.76059e+10
3.56306e+08
1.75926e+09
3.64583e+08
4.45359e+10
3.91558e+09
1.50062e+10
2.33158e+10
4.09327e+10
6.21798e+10
1.39748e+09
6.15698e+09
1.00212e+09
2.18111e+08
1.75276e+09
2.26879e+10
1.14347e+09
5.00627e+11
1.09838e+08
6.05673e+09
3.86229e+09
4.84236e+10
4.01901e+09
2.3001e+10
1.1234e+09
2.67783e+10
3.59312e+10
1.58034e+10
5.65479e+09
8.8007e+10
7.50147e+08
4.24046e+08
4.7142e+08
1.47919e+11
5.02914e+10
1.37098e+10
5.06953e+10
1.84789e+11
1.34236e+09
4.53108e+11
5.20014e+10
1.38298e+10
1.83431e+09
2.4894e+08
7.87161e+09
8.2346e+09
3.34157e+08
3.16139e+11
4.09542e+08
3.75624e+08
1.53308e+09
1.30176e+06
9.51775e+10
1.14206e+10
3.37255e+10
1.36729e+10
4.98595e+09
3.95704e+09
1.84284e+09
1.98203e+11
3.14915e+10
8.18045e+09
3.34318e+09
6.79164e+09
4.27055e+08
3.27846e+10
4.33994e+08
1.84226e+08
4.20111e+10
1.05962e+08
5.64785e+10
2.4302e+08
5.6683e+09
5.11284e+11
4.21888e+10
3.57867e+09
1.07716e+10
8.57571e+09
1.37824e+10
4.76641e+09
1.90169e+09
1.00981e+11
1.03532e+10
3.24871e+09
3.46548e+09
1.81445e+08
2.40202e+08
9.22246e+08
1.15355e+09
3.4889e+08
3.4469e+10
5.22478e+10
5.56285e+09
1.81281e+11
3.26168e+09
2.02444e+11
2.16882e+10
3.25187e+08
4.45625e+10
2.37405e+10
1.99048e+08
6.83005e+09
3.72917e+10
1.62948e+11
5.9802e+10
3.73936e+11
1.63372e+10
5.7272e+08
3.88736e+09
2.23777e+10
1.91661e+09
1.59093e+09
1.775e+09
3.11399e+09
3.66193e+08
1.45422e+08
3.04341e+08
4.6496e+09
1.23345e+10
9.24792e+10
2.03919e+11
1.35539e+10
5.0096e+09
1.99083e+09
4.23814e+08
2.92661e+09
6.38036e+09
3.35546e+08
6.60776e+10
8.02791e+10
2.74869e+11
3.31854e+10
6.11544e+10
3.61642e+09
5.27965e+10
6.28293e+09
2.40709e+08
1.47076e+10
1.23071e+11
1.65724e+11
5.86293e+09
3.86805e+10
4.89876e+10
1.80963e+10
8.16333e+10
6.66101e+10
4.25603e+08
4.35946e+09
1.92339e+10
7.48942e+10
1.84724e+10
1.92006e+08
3.98056e+09
3.00665e+10
7.7602e+10
5.4034e+09
1.52213e+08
2.40365e+11
8.59342e+08
9.45236e+09
1.05569e+10
2.44756e+08
7.03588e+09
4.60731e+10
3.83005e+09
4.50776e+09
2.46496e+10
7.65538e+10
3.21121e+09
9.07787e+09
5.68271e+09
3.50298e+10
3.36415e+10
8.79708e+09
4.17735e+10
6.29583e+08
7.16126e+09
3.77429e+08
2.21006e+11
3.46915e+08
1.54268e+09
3.57953e+11
3.05677e+08
9.56449e+09
1.23055e+08
5.06489e+09
8.39429e+08
8.37427e+10
7.19013e+09
1.91776e+09
7.86447e+08
3.89638e+08
1.12677e+09
7.66472e+09
2.89344e+11
5.94587e+08
7.71851e+09
6.05136e+08
2.50981e+10
1.86047e+09
8.74613e+10
3.46182e+10
6.53728e+11
2.52924e+09
9.08188e+09
5.94846e+09
3.00891e+08
1.462e+07
5.44155e+08
2.06429e+10
1.5328e+11
4.16129e+09
5.35521e+09
9.22403e+10
3.55492e+10
5.28802e+09
1.1427e+10
2.28968e+11
5.41498e+10
4.34296e+09
1.88378e+10
7.92668e+09
3.43096e+10
4.01507e+10
9.65491e+08
4.90079e+10
2.42437e+10
3.62943e+09
3.08233e+09
9.44667e+10
4.0578e+09
1.78903e+10
1.64681e+10
1.17316e+11
5.88758e+09
4.79937e+10
5.57501e+09
3.15199e+08
4.23587e+08
3.80102e+09
6.02177e+09
2.64928e+10
6.19244e+09
8.29807e+08
4.63454e+09
4.8827e+09
1.37617e+11
8.88019e+09
2.80721e+09
2.25352e+09
3.47385e+09
4.90529e+09
3.57491e+08
4.04462e+10
1.8553e+10
1.46555e+10
2.34735e+10
5.83051e+10
3.285e+09
1.17175e+09
2.39238e+10
1.66185e+11
1.26206e+11
1.20931e+10
3.25063e+09
2.83779e+09
7.03748e+09
3.94964e+09
1.91951e+06
3.35372e+08
2.2152e+09
3.2542e+10
2.424e+10
8.781e+10
2.33136e+11
3.1203e+08
3.8463e+08
1.47414e+11
2.83818e+09
7.4206e+09
2.27456e+11
1.2286e+10
3.18534e+09
4.26046e+09
1.1758e+10
5.73697e+09
1.97449e+08
1.14121e+11
3.87295e+09
3.18018e+09
6.94005e+08
2.02365e+10
1.37634e+10
2.73709e+10
7.75568e+08
5.46685e+09
1.1869e+11
4.45586e+09
6.48362e+08
4.15138e+10
4.36801e+11
4.78087e+09
1.83495e+08
3.21436e+09
7.72144e+09
1.14725e+11
1.8369e+11
4.01924e+10
6.94777e+09
1.02008e+11
2.64511e+09
4.26328e+10
4.30071e+09
5.13235e+09
1.66423e+10
2.22218e+11
2.56542e+10
3.0042e+08
5.74613e+08
9.05065e+09
1.59197e+10
8.09107e+09
4.29641e+06
5.33091e+09
7.56001e+09
9.87369e+10
3.53524e+09
1.6865e+09
9.99791e+09
1.59969e+10
3.06713e+09
6.24844e+10
1.39592e+09
2.48607e+10
3.60902e+10
2.84533e+09
2.3324e+10
2.17874e+10
6.24558e+10
3.57105e+09
2.78641e+10
1.29563e+11
1.34141e+09
8.40241e+10
4.07742e+10
2.07036e+10
3.30331e+09
4.19339e+10
3.0146e+10
4.03567e+09
1.59774e+11
2.24877e+09
3.51662e+09
5.0164e+10
1.09991e+08
1.16365e+11
1.43481e+09
2.95228e+10
3.01598e+11
5.67116e+09
1.58007e+09
2.40591e+11
5.8713e+08
5.92109e+10
1.40404e+09
2.90638e+11
3.00361e+09
3.12855e+09
4.24158e+08
3.0977e+10
2.91903e+09
1.12634e+09
3.26046e+10
1.27138e+10
8.1215e+09
7.66994e+10
2.89827e+08
3.19129e+09
1.54969e+10
8.78783e+09
4.4158e+10
5.37075e+10
3.50492e+09
4.79692e+10
2.67984e+09
3.28584e+10
8.11479e+08
4.23685e+10
4.2243e+09
5.73242e+10
5.63747e+09
2.03749e+09
3.98006e+09
9.62148e+09
2.18412e+09
2.76279e+09
4.36052e+08
9.01351e+08
1.39369e+10
7.26138e+09
2.88467e+09
2.19124e+08
2.42772e+10
1.06281e+11
1.24467e+10
4.1005e+09
4.71535e+10
4.23945e+09
2.57345e+08
7.78058e+08
4.65518e+09
2.15214e+10
3.43475e+10
1.35138e+09
3.11307e+08
7.88418e+08
7.6856e+08
5.5931e+10
5.64663e+10
1.25651e+09
6.10799e+10
7.16876e+08
1.63243e+09
1.96862e+08
1.44445e+09
9.90292e+08
4.23457e+08
1.17779e+11
1.01237e+11
7.5878e+08
1.57173e+10
3.99599e+09
9.86426e+09
5.86791e+09
6.24003e+09
5.29854e+10
2.00079e+10
3.28005e+10
3.25287e+09
3.90343e+09
1.08485e+09
1.81962e+10
1.09678e+09
2.2199e+08
3.67329e+10
1.81562e+09
5.70628e+08
9.0354e+10
1.39187e+08
3.28437e+09
1.59946e+09
9.82901e+09
2.65543e+10
2.27263e+09
1.20956e+10
4.79649e+09
8.71206e+09
4.52913e+09
7.54574e+09
1.02873e+10
1.77656e+10
4.3967e+10
4.00526e+06
7.35756e+09
1.28883e+09
9.73027e+09
7.753e+09
1.48863e+10
1.78813e+09
2.86825e+09
6.3129e+09
5.47924e+09
3.22953e+09
6.88547e+08
3.18657e+08
4.96521e+11
5.91801e+09
1.67807e+11
8.58906e+10
8.34975e+09
3.92919e+11
6.38488e+09
1.0926e+08
4.24624e+08
3.70203e+09
1.95283e+10
4.85378e+09
2.82499e+10
7.25865e+09
5.31096e+09
3.25462e+09
3.64063e+11
1.11971e+11
1.61456e+09
9.0512e+08
2.93829e+09
4.36403e+09
5.06238e+10
7.33984e+10
7.42871e+10
1.12428e+11
2.94583e+11
3.64851e+09
2.22345e+07
8.07408e+09
3.71784e+10
1.61034e+10
6.27675e+08
5.40105e+10
2.88331e+09
2.8125e+09
1.15649e+08
1.6593e+10
2.70044e+10
4.49763e+09
3.29316e+10
6.71576e+09
3.44051e+10
6.68962e+10
5.06099e+10
1.45872e+08
1.07327e+10
4.98082e+10
3.32206e+09
1.63407e+09
3.58714e+09
8.88951e+10
5.55115e+08
6.31915e+08
2.36103e+09
5.28717e+10
3.30108e+09
4.68908e+10
3.39197e+10
2.83963e+10
3.93208e+09
1.32363e+10
4.9465e+10
5.59592e+09
1.86103e+11
5.76813e+09
3.06846e+10
2.40137e+10
7.54169e+09
2.44709e+11
2.06459e+10
7.00064e+09
1.04722e+09
1.81167e+10
1.61235e+10
5.27483e+10
5.47925e+10
4.88141e+08
4.27032e+09
3.12714e+10
3.90841e+08
1.65492e+08
6.81873e+09
1.55978e+09
1.68161e+11
1.92452e+08
4.53157e+10
6.06001e+08
2.14366e+10
2.03807e+10
3.39348e+10
7.1106e+10
7.0936e+09
1.91217e+08
1.53622e+08
1.88479e+09
3.94893e+10
1.27062e+09
5.62604e+09
1.54301e+10
2.84696e+09
3.46181e+09
3.34784e+09
2.23433e+08
3.9701e+09
5.72795e+09
2.94018e+08
6.93022e+09
6.80981e+09
2.38686e+10
8.76235e+08
1.91696e+08
1.27892e+08
5.53706e+08
2.305e+08
3.9618e+08
1.04248e+09
1.1777e+08
1.68153e+08
1.4396e+08
2.52535e+10
5.58754e+10
1.45249e+09
1.68079e+08
2.43771e+10
2.99962e+08
2.94544e+06
8.5433e+08
2.3527e+08
1.958e+10
8.21245e+08
9.23261e+09
2.42299e+08
4.11469e+10
3.4698e+08
3.46029e+10
4.11768e+10
1.11242e+08
1.47767e+10
4.64767e+09
2.00982e+10
1.01844e+11
6.0138e+10
1.19171e+11
1.25792e+10
1.52286e+10
8.80567e+08
1.86807e+11
3.84776e+09
1.4369e+10
7.69591e+10
1.75928e+11
3.01315e+09
8.28855e+08
1.16e+09
6.87797e+08
8.86984e+08
1.84834e+08
7.67959e+08
1.47956e+10
1.65043e+09
2.54424e+08
3.89235e+09
2.93938e+11
5.54011e+09
1.01549e+10
4.92766e+10
5.53588e+09
1.16453e+09
5.35542e+09
4.97392e+10
1.70259e+10
1.42079e+09
1.04773e+11
1.43384e+08
9.28628e+09
2.98726e+09
1.16375e+09
3.95537e+09
1.08696e+09
4.12595e+08
2.7324e+09
7.53729e+10
9.24737e+10
1.59051e+10
2.03947e+10
2.26495e+09
2.40024e+08
1.43807e+10
7.5254e+08
2.04424e+11
3.48606e+10
6.30915e+11
6.83034e+10
4.88943e+10
2.6494e+09
5.84963e+10
3.46638e+10
1.04923e+09
3.40649e+10
2.61524e+10
3.50655e+09
3.47432e+09
7.70175e+09
4.81601e+09
4.34716e+09
6.49314e+08
2.20921e+10
4.3118e+09
9.66575e+10
2.35234e+11
1.14453e+09
5.14488e+09
4.89073e+10
8.87863e+08
3.93721e+08
1.28085e+10
2.49137e+10
4.6844e+10
5.90449e+09
1.5001e+10
2.75559e+07
3.19448e+09
8.88345e+10
4.95201e+09
5.43552e+09
1.40877e+10
4.31535e+08
2.71003e+09
4.17019e+10
8.0681e+10
2.41965e+10
2.72737e+09
2.72698e+09
1.98693e+09
1.89146e+09
2.83501e+09
1.1926e+10
2.32981e+10
1.45351e+09
3.12031e+08
3.40179e+11
8.37646e+09
4.41598e+11
2.12502e+11
1.48044e+11
3.29887e+09
4.44104e+10
3.98686e+08
2.41169e+10
3.32113e+09
6.47946e+10
4.45828e+11
3.25095e+09
1.11581e+11
4.57828e+10
3.76436e+10
9.12263e+10
9.11813e+09
3.48785e+08
9.8186e+09
3.6104e+09
2.59394e+08
2.99472e+11
1.55192e+11
4.82379e+10
1.96723e+10
3.55926e+07
7.81355e+08
4.45401e+09
5.09442e+09
6.39949e+10
1.98426e+09
3.70959e+08
9.97258e+09
1.46673e+09
5.00136e+10
1.56332e+10
4.28257e+10
2.00801e+10
5.87441e+09
8.93476e+09
5.61169e+10
3.19344e+09
1.06404e+11
1.49567e+10
7.5316e+08
3.19237e+11
2.22875e+11
4.37596e+11
1.65195e+09
1.8885e+11
4.1171e+10
2.68395e+10
6.89883e+10
5.77477e+09
2.11608e+10
1.15932e+09
7.10734e+09
2.78313e+09
1.21874e+10
4.97109e+09
1.89e+10
8.43018e+10
5.79293e+10
3.27978e+09
1.32596e+10
3.58736e+10
9.40794e+08
4.18127e+10
1.83677e+09
5.34844e+09
2.00009e+08
2.97758e+10
5.72794e+10
3.48361e+10
4.55672e+10
5.90086e+10
4.57202e+09
8.07709e+10
5.99535e+09
4.23756e+10
1.44308e+10
2.07816e+10
1.70049e+10
1.55904e+10
1.00228e+10
1.007e+10
3.42216e+09
5.35282e+10
1.50779e+08
5.18817e+08
6.24256e+08
2.26012e+09
8.87843e+10
2.95281e+11
4.73634e+08
5.46313e+08
4.71653e+10
1.44587e+10
5.43454e+08
4.39782e+10
6.58343e+09
4.04666e+09
3.81165e+10
1.12579e+10
3.08586e+10
2.16854e+11
4.38276e+10
4.92293e+09
5.78276e+10
2.95378e+10
1.75857e+10
2.38059e+10
1.41342e+10
2.76967e+09
5.94471e+08
2.65239e+09
5.91183e+10
7.41472e+09
7.91181e+10
2.10249e+10
3.1785e+10
3.96415e+10
3.02203e+08
3.94852e+08
1.00806e+09
4.63913e+11
2.67268e+09
3.05847e+08
1.64387e+08
2.89706e+09
2.7786e+09
3.72253e+09
3.63195e+09
2.74342e+10
8.25806e+08
5.50472e+10
7.19804e+10
3.45779e+10
2.79624e+09
1.31185e+10
1.18456e+11
4.64955e+08
2.60824e+09
1.36087e+09
1.68581e+10
7.42496e+09
1.74774e+10
1.03578e+10
1.97947e+08
6.78415e+08
2.88869e+09
1.15717e+10
5.2539e+08
2.7955e+09
7.65611e+07
5.25504e+08
7.63633e+09
8.17294e+08
8.71868e+09
1.33265e+10
6.1245e+10
1.42085e+11
1.64511e+10
4.30385e+08
2.58326e+10
4.13454e+10
3.24958e+09
1.04135e+11
4.2437e+08
1.04166e+11
1.62972e+10
4.76179e+10
1.26985e+09
2.79353e+10
1.4155e+09
2.37774e+08
3.0737e+09
8.88354e+09
2.12413e+10
2.85523e+09
1.78276e+10
2.04441e+10
2.34046e+10
1.53282e+10
2.07436e+10
2.86247e+08
3.55223e+10
2.98664e+10
5.54826e+09
2.04617e+09
1.56785e+10
8.60384e+09
3.11597e+11
2.94883e+09
2.6319e+10
2.63519e+09
4.12565e+08
3.83671e+08
4.73265e+09
1.74189e+09
1.87644e+10
2.98877e+10
6.31158e+08
8.94248e+10
2.61019e+08
3.96696e+08
7.74803e+09
1.85325e+11
4.62641e+08
1.31513e+10
1.65249e+11
3.43666e+08
2.62152e+08
2.65873e+10
6.03798e+08
2.4878e+08
4.31627e+09
2.22155e+09
7.43397e+08
2.72665e+09
2.89247e+10
2.04214e+11
3.55334e+09
3.15261e+09
4.84367e+09
7.8205e+10
1.05278e+11
2.93176e+09
6.8269e+10
6.5169e+09
9.36833e+09
6.01567e+09
4.12644e+09
3.69592e+08
1.31608e+10
8.15249e+08
6.56199e+08
2.92138e+09
7.09282e+10
2.95969e+11
8.85047e+09
3.25431e+10
1.19135e+10
6.8301e+09
1.23321e+08
1.35413e+09
2.67805e+09
6.38721e+09
8.88953e+08
3.0502e+09
9.97724e+08
2.67907e+08
2.82868e+11
1.29483e+08
4.74099e+09
3.91344e+09
3.905e+11
1.89024e+08
1.3684e+10
2.3245e+10
3.25883e+10
5.91219e+09
2.10736e+10
4.14143e+10
2.40222e+11
6.50921e+10
1.82478e+08
4.06013e+10
4.19298e+10
1.19553e+09
8.14447e+08
1.19177e+09
2.31041e+08
2.53773e+09
1.46071e+08
1.98302e+10
2.96752e+09
9.84444e+09
4.71299e+09
2.78612e+09
5.7469e+10
2.5539e+10
2.1169e+10
1.41082e+09
1.04161e+10
4.13743e+09
1.81027e+08
4.02574e+09
3.35987e+09
8.25629e+10
2.79952e+09
2.83633e+09
9.67875e+09
2.9511e+09
2.11881e+08
6.55793e+10
3.25568e+08
6.39808e+08
2.05558e+10
1.69176e+11
1.15558e+09
1.94187e+10
2.22817e+10
5.93069e+09
1.10159e+10
5.89971e+08
6.71902e+10
2.20401e+08
7.67461e+09
2.84543e+09
4.64199e+10
2.3599e+08
4.21604e+10
1.38428e+10
3.97161e+09
2.89072e+09
5.40673e+09
2.60288e+08
2.83251e+09
1.74621e+08
4.52483e+09
4.11962e+08
2.10024e+10
1.49275e+10
4.8883e+09
1.30633e+09
3.38012e+09
3.54129e+09
3.38452e+10
2.08123e+11
1.47137e+10
1.70796e+09
6.31882e+09
4.8969e+11
1.39485e+10
3.53377e+09
3.7468e+09
8.5069e+10
5.99248e+09
4.35987e+08
2.39886e+10
3.81957e+09
5.61262e+10
6.8853e+09
4.91489e+09
2.13899e+08
4.17766e+10
3.11862e+08
1.98005e+09
6.41326e+09
4.01779e+10
4.76176e+10
1.71292e+11
2.10499e+11
3.512e+09
3.64038e+10
2.59997e+10
8.97719e+10
3.5201e+08
7.52441e+09
3.91496e+09
2.17211e+10
8.62177e+10
8.01733e+08
1.90107e+08
4.80206e+10
5.56745e+11
3.13335e+10
2.7253e+08
5.87232e+08
4.10964e+09
9.84731e+08
2.65322e+11
1.32975e+10
3.20192e+09
3.08037e+10
1.9846e+09
3.26448e+08
1.32557e+10
2.72184e+09
5.51113e+09
5.25839e+09
9.37559e+09
4.07521e+09
2.41628e+11
2.56339e+10
2.75666e+11
4.10486e+08
1.34888e+09
6.37307e+09
1.12271e+11
2.13073e+09
3.73229e+09
7.86181e+08
2.87245e+09
1.13301e+10
2.97932e+10
5.20463e+09
1.09788e+10
4.96425e+08
3.1629e+09
4.77015e+10
2.38822e+08
5.01063e+09
3.51665e+08
3.066e+09
1.82884e+09
5.38644e+10
4.46748e+10
6.35004e+10
1.07284e+10
4.22157e+09
6.04018e+10
3.56469e+08
3.67186e+09
1.02403e+11
1.43073e+11
4.8064e+09
2.44812e+08
5.47646e+10
1.66392e+11
1.63204e+08
2.58281e+11
2.18772e+10
1.65724e+10
5.94389e+10
3.66964e+10
3.24775e+09
1.9437e+10
2.72697e+08
1.26421e+10
1.03713e+10
1.92816e+08
2.58604e+08
2.24743e+08
7.05112e+09
1.60586e+10
1.79364e+10
3.30574e+10
4.39719e+08
4.01256e+08
7.24894e+09
1.42705e+09
3.28348e+08
4.21561e+10
1.06845e+11
3.82305e+10
4.30581e+09
6.1644e+10
3.43362e+08
5.13809e+08
9.70735e+09
1.00792e+10
4.07537e+09
2.81713e+08
1.9503e+08
2.2738e+10
3.44681e+10
3.21584e+10
7.66761e+09
1.38509e+10
7.55811e+10
1.29653e+11
3.33763e+09
3.02679e+09
2.87931e+08
8.82952e+09
1.19499e+10
3.25623e+09
2.16175e+11
1.24053e+10
6.51748e+10
1.58714e+10
1.32913e+08
2.45005e+08
2.9664e+08
7.99128e+09
3.15831e+09
3.11616e+09
8.8179e+09
6.13974e+08
8.4038e+08
3.63293e+10
6.82358e+09
1.31108e+08
1.05783e+11
1.20767e+10
3.33523e+10
1.52032e+09
6.31001e+09
1.44145e+10
3.332e+08
4.51308e+09
2.29172e+11