/*--------------------------------*- C++ -*----------------------------------*\
  =========                 |
  \\      /  F ield         | OpenFOAM: The Open Source CFD Toolbox
   \\    /   O peration     | Website:  https://openfoam.org
    \\  /    A nd           | Version:  8
     \\/     M anipulation  |
\*---------------------------------------------------------------------------*/
FoamFile
{
    version     2.0;
    format      ascii;
    class       volScalarField;
    location    "3e-05";
    object      k;
}
// * * * * * * * * * * * * * * * * * * * * * * * * * * * * * * * * * * * * * //

dimensions      [0 2 -2 0 0 0 0];

internalField   nonuniform List<scalar> 
23640
(
4391.92
12636.5
727.905
27342.6
17096.7
20956.3
13065.5
9652.01
50339
38636
21465.1
26537.9
4782.98
14567.1
34921.4
17000.9
2875.76
47057.3
37605.5
47485.9
21596.8
656.37
22609.2
12494.1
14571.5
16487.1
73275.3
52570.9
1955.78
6671.16
3811.4
49131.4
20917.2
38533.9
39957
39144.4
2892.41
2929.32
2304.44
10299.9
31325.3
48581.4
15975.1
2274.26
36394.6
74684.8
3554.02
18264.4
38091
9191.91
49092.2
54674.2
38987.6
2462.76
27904.6
23523.2
32708.2
21450.4
6903.2
32685.8
3747.94
73274
17466.2
53469.8
8081.79
53429.6
14951.8
16060.3
25390.7
16273.7
8826.4
38224
26720.1
2487.81
20558.4
48411.8
3703.47
4643.84
36825
17934.4
75744.3
58213.2
7266.26
7329.64
7978.74
32427.6
54639
6820.51
16208
33395.5
9365
22148.6
43209.5
29693.9
59097.9
7063.32
52111.8
30220.6
21085.9
43262.8
43923.1
2417.74
10399.4
1642.75
35201.8
2781.49
12829.4
1919.49
29510.6
24346.7
3388.84
27105
29806.8
30862.3
52745.5
1304.22
34359.5
3181.43
4198.07
7323.48
7166.71
46964.4
28445.9
47943.1
67583.3
10042.7
49222
57669.2
20819.8
28569.3
55898.3
50821
4792.68
72448.7
1831.21
6579.14
19914.1
15412.3
21990.4
48387.4
22785.1
32864.3
26741.5
21617
21464.4
19447.4
18891.8
11863.3
9734.19
24202.6
9011.83
19845.2
7559.33
21785.3
58131.1
1946.37
13158.1
36468.9
15184.3
73681
32154.8
40610.4
39948.6
12167.6
1332.82
1239.44
9973.72
81674.6
13982.6
49662.8
17646.9
53101.3
20349.3
28739.6
15228.8
14292.6
28833.6
63684.9
17901.6
6833.65
36264.8
8954.37
15141.7
52952.2
2239.98
69885.4
71064.4
39116
30173
55285
49830.6
19514.3
46091.7
7528.01
2025.95
9213.97
35404.3
28304.5
6362.74
70696.9
29167.3
3241.57
3349.52
47853.5
31557.5
7841.06
6076.23
21924.9
59798.6
10967.2
15309.5
16039.3
5658.46
7937.64
19549.5
23484.1
19490.5
47242.2
14561
2049.02
5775.46
20718.8
28892.7
27322.9
13790.9
28434.4
21066
47478.7
2253.33
9279.24
4522.5
1978.09
44799.6
16676.9
35630.1
58348.1
9076.81
23870.4
9656.99
71352.2
45244.6
29692.7
31846.5
45472.1
26006
2066.24
6810.02
24715.9
20141
10319.3
34158.7
19139.2
3513.16
14969.3
7112.18
10335.1
1309.36
2029.51
17002.6
15184.5
32596.6
3246.79
46305.7
28350.3
2629.47
15785.1
69907.2
19240.1
7167.79
57924.7
33065.4
1648.41
6861.98
30972
55389
38441
2295.52
46971.1
55472.2
28329.5
9707.63
3771.01
71884
21145.8
26322.8
73072.6
14174.7
28303
15926.3
21349.4
9523.35
2400.13
23259
13819.2
22183.2
15012.1
28103.2
2531.48
19078.6
4128.98
82646.3
52238.2
47468
22257.6
20494.7
1533.19
53387.9
74887.8
30630.7
25297.5
1786.08
55212.7
15374.4
33957.7
29193.2
69950.4
37738
828.519
58123.7
20968
5240.59
37823.3
39879.2
51814.8
1854.76
63520.9
14794.9
14773.8
6174.45
49254.8
76869.1
9792.78
53602.9
64356.6
14803.2
21717.4
6388.41
32175.6
14242.8
18713.7
24956.4
28219.3
57660.5
47120.1
16567
48856.4
74273.3
24942.3
28216.3
45330.8
15151.7
60802
1956.79
3152.61
39299.7
1336.5
7608.13
3129.41
16860.2
20715.8
70750.3
22645.5
48418.9
3928.42
23661.8
2081.44
1440.16
34341.3
37449.8
6822.54
78519.5
14366
1753.45
28711.7
67804.1
1919.38
36900.2
3147.98
14947.2
69305.1
28244.3
14900.7
22213.5
30427.2
26481.1
1843.85
43544.6
1212.57
9733.04
1546.07
61820.8
22958.7
7067.58
38796.3
49390.7
12029.1
46623.3
2836.37
3399.71
74744.5
4982.11
4905.87
37665.9
1662.67
4574.13
19863.1
24299.9
2026.65
33359.6
15399
27409.1
20064.9
14874.8
67381.7
19222.1
30752.3
73514.9
5568.13
55800
42107.4
17150.3
60747.8
19166.5
27814.1
44504.5
1403.14
47528.6
32060.1
22243.5
9986.18
2682.5
38821.2
10888.3
22438.8
63959.4
16720.5
79521.6
28315.4
67475.8
33210.9
64951.4
15805.4
28676
49873
67042.6
15635.6
74818.5
32991.3
26568.7
34890
49461.1
14889.3
15555.4
22897.9
53083.1
1885.47
14409.4
52331
14433.6
32900.1
54777.5
25991.2
31557.9
49413.7
32492.6
7391.81
39835.8
17720.1
47936.6
50305.9
53565.2
8336.84
33326.3
5007.38
6032.9
74583.4
15627.3
49445
54274.3
46341.5
16428.5
2265.75
44621
49616
25985.4
56865.1
17437.7
4417.9
3908.6
3158.13
68968.2
44605.2
4311.07
10329.3
15080.9
19810
43099.5
79788.9
57884.9
3948.21
6772.19
19246.4
1414.46
20622.4
7913.7
7061.94
51442.2
1739.7
2351.69
4662.4
74336.1
5052.21
41445.8
35613.2
22781
33509.6
30506
2007.12
43945.3
19919.3
28784.1
63349.1
49460.8
33118.1
15814.7
30405.6
22949.9
56417.5
28202.9
6856.92
21644.4
14195.5
60495.8
22126.4
36430.4
5681.34
39089.3
45272.8
1929.96
52053.6
10899.9
8024.6
15413.8
18863.7
2680.17
15695.9
33687.5
19720.8
11608.8
11665.9
67445.4
16996.9
38930.6
2092.76
68014.2
5862.03
18414.4
28002.8
20469.6
16076.2
7682.98
14188.1
21510.6
71021.1
45037.8
23022.8
20509.9
29280.8
68862.8
32894.4
49457.5
15647.9
14953.8
2557.92
3037.93
37533.1
32749.3
33384.7
34495
3193.79
39406.5
20295.4
3058.32
57277.1
33489.8
15068.2
10326.9
34029.6
16255.3
29282.5
19768.2
14117.6
30489.8
42371.4
6999.2
57196.2
45862.9
72504.1
8378.54
47410.3
19649.5
26196.4
16900.4
57353
6420.62
16831.6
48669.3
5364.6
32391.9
22855.5
7079.71
9142.39
25558.6
8680.5
22041.8
49123.3
41248.7
21859.4
2593.56
47824.9
32244.2
28600
38161.3
19848
17503.6
58620.2
19623.8
27774.4
7313.5
28992.6
1973.03
16607.6
3774.41
6777.57
1986.57
30342.7
6956.96
20502.3
2682.61
27858
43167
27846.8
13678.4
4661.24
9903.36
20478.4
28228.8
71646.6
1855.33
25332.6
42138.8
46953.4
19726.3
8906.84
46356.9
28908.7
55302.6
17253.2
4957.78
8593.56
43964.8
77862.1
1302.13
65316
158.415
73.0358
6480.92
46310.8
18555.2
20322.6
47252.6
20969
21389.6
40628.3
53935.3
2533.27
5716.72
17485.6
3231.52
19230.5
35221.7
18080.4
18717.4
3197.98
35091.1
1604.58
26322.6
33992
75933
47118.1
1922.03
6632.24
49653
10356.9
64041.5
2797.19
28232.7
34504.8
12211.9
28985
49018.8
55038.3
40565.2
10893.4
2096.6
47663.5
9133.07
40414.2
11406.7
64291.8
29025.3
9678.38
58773
2354.76
337.163
36206
27224.5
17312.6
22308.9
26223.3
43576.8
74386.2
32431
3632.82
57846.9
253.58
2148.32
2087.08
33347.7
24903.3
21857.9
3098.31
17754.3
12296.6
1997.31
27788.6
16224.3
31037.2
18073.2
23069.6
10496.3
35243.3
18206.4
68264.8
1612.91
73982.7
3255.54
17230.3
1690.87
6537.02
66657.9
1406.48
12331.4
5703.62
12311.3
49446.1
70774.4
2021.03
56005
8900.69
2953.42
6941.99
59335
12734.1
23830.1
26204.1
20219.1
39856.9
36136.2
57327.5
27941
37878.7
78657.2
30770.9
14608
4867.26
13589
15946.2
63695
12207.5
35824.3
48237.1
1672.31
12916.8
28556.7
44374.6
71155.4
1547.32
54045.7
29804.5
4897.34
39291.9
24459.4
7539.37
4601.73
12659.3
8111.99
16142.2
3672.66
10062.6
36040.9
33859.3
15188.3
3294.79
34869.2
28240.4
17362.7
33987.7
16446.9
6282.05
41175.5
13613.5
17639.5
23668.8
21899.4
53150.1
12689.7
8936.93
34484.1
31679.4
17614.7
7664.31
6891.89
53068.6
16428.6
11242.5
55715.1
3435.04
32250.5
58317.5
6017.85
70284.2
2560.51
53174.5
30267.8
15728.1
23305.8
66234.5
2443.65
5344.6
52204.4
38696.3
23710.6
36935
2009.29
1830.12
21938.6
6153.84
8855.79
17670.6
6088.98
4699.94
40031.9
6742.67
40876.5
49460.1
16859.5
53851.9
38590.1
53177.9
75262.5
4178.78
7855.24
5872.31
72583.7
4459.28
23969.2
3001.36
40741.1
26733.6
68266.4
11078
15937.5
21496
49395.6
1930.46
13149.7
89200
1669.28
1498.09
35004.3
5679.54
52339.5
4070.26
69527
45116.5
17639.9
54802.6
25802.5
7588.05
1778.58
73683.3
32220
42965.3
6676.07
56734.4
14282
10822.3
1967.06
14433.5
29664.1
7270.31
15512.9
3994.98
58498.6
1504.46
57445.6
10283.9
31007.6
1982.19
76524.6
1593.9
40538.4
50194.8
20997.3
6855.88
70446.1
15302.2
29816.8
18206.4
21133.5
27140.6
6489.87
9569.88
1490.66
30048.1
2041.75
16382.4
40854.6
47342.1
53426.8
29361.9
378.961
33120.6
34088.7
61417.1
33977
6633.63
20596.8
19415.1
38849.8
1508.42
20013.6
20890.6
18338.3
58630.2
13099.2
48816.8
1829.01
3249.07
27840.1
20929.9
2294.45
35145.5
10760.1
5750.97
11061.6
1702.49
15360.4
1659.14
33243.4
8841.51
30479.3
5846.57
31839.7
10420.4
18572
30430.4
7134.36
16526.7
25825.9
4079.59
19920.7
17759
30124.3
4741.95
31625.4
36136.1
34704.8
14041.5
41174
9212.2
30122.2
19318.9
16825.2
26949.3
3043.18
5259.14
12388.7
38406
5538.86
24279
15798.2
32423.3
10601.2
14390.5
31153.8
6978.83
28050.5
27640.3
40651.3
5778.76
63158.3
56583.8
31417.1
73780.6
64572.3
1903.75
10554.8
12713.2
2953.6
8138.97
3260.72
12624.7
10685.9
38244.2
8761.94
13690.1
41377.1
11114.4
33410.3
45455.8
2069.23
11510.1
56230
4082.38
13687.7
18263.3
16024.4
17642.6
42847.3
56508
10315.2
42748.8
2486.33
9146.78
5237.75
33451.6
11470.9
3688.52
6113.66
13744.6
6443.03
12873.6
1999.01
72947.1
50588.3
73538.2
41422.9
33991.4
10173.4
24035.7
37923.3
11096.3
26864.4
7718.19
55759.6
12170.1
16196.7
37165.6
19476.8
13950.5
3998.73
20181.9
17939.6
6622.23
1969.69
72791.2
75328.9
20867
10788.8
1606.71
47043.8
82790.5
62339.5
13980.8
74686.6
3721.44
10853.5
11973.8
4714.28
38001.4
34803.4
69315.5
8215.84
34046.4
47195.5
35423.6
5219.3
30263.1
51284.1
14256.9
4794.58
75299.5
61520.9
5320.19
5236.69
2888.97
25191.2
15099.8
27650.3
2437.67
2074.61
23869.9
2402.33
21368.3
19323.7
4218.03
13276.5
73492.2
22988.4
17770.3
3884.05
3982.78
12107.7
20289.8
72394.2
66783
8155.3
55789.8
10148.9
4498.55
5286.61
1859.06
2581.51
47862.2
8090.66
39095.3
8017.32
37633.2
27759.1
40373.3
40142.1
15067.2
49309.8
1846.18
4668.71
16029.8
5165.53
1910.47
54981.8
24989.1
1304.32
19499.5
14441.1
73287.3
23498.8
17996
2708.49
70370.1
34232.1
3091.36
7805.71
8640.09
39531.7
1967.59
77206.4
8688.96
54893.6
20999.2
34644.8
25875.5
45907
3140.7
56792.1
52745.4
34575.1
16434.7
43741.6
65819
40709.2
39336
48669.6
35887.9
42968.8
33060.1
7732.75
27250
68641.6
14076.2
4050.1
35476.7
30286.1
1826.83
2858.93
27250.2
64680
1278.51
11595.1
4304.84
31475.5
6830.98
12183.5
15832.3
12058.1
23336.4
2417.48
49455.8
10163
19880.9
16801.5
46055.3
19732.3
29021.8
1686.73
56757.8
43057.7
11031.2
44263.1
19868.7
1349.17
29998.1
21165.4
20551.2
5353.95
19010.9
3853.17
64248.1
5201.43
2873.95
12971.2
41584
7473.06
57716.5
21398.4
30713.5
19487.7
74635.7
34825.4
52326.3
25241.6
11498.7
41824.6
7408.99
259.709
14949.7
25731.2
3025.38
1961.41
20277.9
29372.8
43392.2
19457.3
12668.3
20459.1
2408.17
19274.8
42662.2
14626.5
9264.03
44882.9
41813.4
49242.4
1888.55
23623.4
61732
3414.81
6493.83
3315.44
52590.8
20295.1
25414.5
30271.9
66246.4
55211.3
8093.74
19086.9
621.267
1788.96
9351.26
4945.47
2189.8
16053.1
417.036
17981.7
15569.4
68362.2
19535.4
38897.3
6960.42
20069.9
58077.2
30247.7
24120.9
26902.6
5498.57
2902.59
4098.57
15634.4
63839.6
30095.6
25875.8
47565.2
7327.2
38714.9
74366.8
37115
8516.39
2641.21
20594.6
22981.6
3194.92
9208.55
3709.84
3413.1
7589.93
49455.5
45719.6
19887.1
39665.1
36317.1
21578.5
16030.9
9251.13
30898.7
54876.1
29081.7
12807.5
19624.1
2884.9
43432.3
2426.5
1802.14
53246.5
1269.3
46963.7
1878.13
11686.9
64626.9
58064.4
13654.7
27011.9
18633.7
29410.4
14136.2
9379.45
71761.1
26668.7
16919.2
15336.3
1610.9
1900.11
6221.9
4805.08
2680.09
33824.7
52896.2
23974.6
42452.8
16756.2
15238.2
39129.3
3272.81
45246.8
41562.8
49381
8932.58
22695.4
76424.1
50492.6
37323.4
22903.3
4633.11
14153.6
35598.6
2621.65
49182.7
8502.65
22879.7
3296.19
1495.32
2114.02
17568.2
28566.2
82144.2
26222.7
36984.8
10904.5
387.456
2519.23
13189.5
16022.8
3406.04
74780.3
34182.2
84994.7
44022.3
73071.7
19853.2
71451.5
19394
2485.13
20045
41645
63374.3
18190.9
57210.6
72801.3
37274.4
75375
69663.2
2716.19
9712.61
14772.3
19373.9
16704
1695.17
19714.8
59366.3
27996.5
19021.4
1567.87
40411
3931.7
8927.29
26337.5
2592.28
20841.6
46191.7
14354.4
19909.2
46036
69821.8
16998.9
16772.7
10095.2
26930.1
45656
15129.3
59481.8
4800.13
19216.4
3366.21
28622.2
2769.67
378.014
44315.6
2498.03
29011.5
1222.34
13394.2
5909.65
44340.6
11139.6
6611.09
2321.22
2085.21
6919.08
27287.8
18751.3
4643.79
27617.6
4791.47
41551.5
7472.02
68236.1
63258.8
26469.5
35625.1
26387.3
18449.4
897.514
49381.2
4292.91
34471.1
64763.8
13178.9
17426.5
32755.2
58087.6
18853.7
26968.8
32528.1
53663.5
27388.7
22910.8
22675.6
59203.7
21142.3
2111.66
38901
33839.7
19777.6
18292.4
30063.9
14610.1
17959.8
22954
41787
18575
22867.3
20310
2536.44
3525.25
13925.8
18845.7
56545.8
19354.1
4952.85
17433.5
11582.7
63380.5
23889
20763
38074.1
15643.5
33958
2348.46
58753
15459.4
11616.9
40215.8
49226.9
12665.2
6722.76
53117.4
5211.45
64334.3
36076.1
12576.1
25758.6
19957.6
14087
49460.7
3089.82
9792.65
47136.2
41230.5
79634.6
85670.9
2189.3
2040.3
57784.1
12966.7
19576.3
71761.3
28512.2
16953.8
10326.5
27154.8
18504.7
1688.98
53541
20127.4
12484.7
4099.81
19417.4
5453.41
24524.6
5481.07
17995
54686.6
14772.2
3902.3
54534.8
47125.5
15571.4
49110.9
22381.3
15069.2
23825.8
31297.2
16646.1
11137.6
75947.7
12076
13829.8
15246.3
12363.2
40616.8
59046.1
26067.9
2508.4
916.402
20805.3
33752.7
22705.1
49458.1
17422.5
15789.7
43046.9
24394.8
8636.08
24375.4
39728.3
9818.68
73218.4
7345.74
14741.6
56545.5
23562.2
39277.5
43062.5
33275
10431.7
58184.4
31284.1
6866.09
33269.7
65080.1
33036.1
19711.5
66215.1
48239.9
15668.8
44947.7
9725.02
14597.4
74671.4
1213.73
41608.1
46200.6
58345.2
23568.8
9375.42
5349.59
77863.6
4415.51
72749.2
7366.62
19015.6
18369.5
17375.4
3766.24
32184.2
20133.7
4308.99
54323.9
29977.6
21370.5
79183.7
1968.84
12508
32668
21306.6
32228
69189.3
18052.3
67657.2
2349.15
33440.5
5794.48
56966.8
47030.4
60966.8
12012.2
45124.8
15827.5
25593.8
8865.08
22408
3002.05
6140.38
20485.3
21470.7
20328.8
1863.68
36629.6
27295.8
6621.3
13327.1
39252.6
18925.3
1992.04
5449.53
11980
38404.3
54627.3
46492.3
2441.39
2130.27
4053.15
72568.6
61291.7
4992.86
15249.3
4567.23
46438.8
1885.62
4793.71
5739.12
2790.59
44486.1
40216.5
5471.08
35126.9
15432.7
25158.4
10100.1
18510.6
72331.2
38110.4
48580.5
12667.2
15765.3
4953.76
18821.3
6785.13
1825.92
60690.7
9600.74
4508.33
29134.7
1453.41
19613.6
6406.73
34509.1
26971.7
9272.03
7128.85
11345.6
27517.2
17231.1
23426.8
31104.5
37510.2
54251.5
49458.4
9392.42
5070.64
25773.1
23686.7
11251.5
8512.8
20405.8
19966
13976.8
17916.9
3616.48
1786.35
23533.3
17673.2
11009.9
70502.2
29618.4
37891.6
25496
1404.82
2685.54
9751.34
45031.7
16179.3
41332.6
21457.6
21269.1
12214.3
30324.7
50675.3
5234.47
47596.9
10133.9
13323.8
74830.6
59235.7
53180.9
81351.4
35425.1
13810.1
49459.7
20895.2
64106.4
34699.9
3869.05
26329.7
27952.1
24665.8
1210.42
30781.3
57218.9
11683
56352.9
9206.76
64239
34326.7
39611.9
1311.49
31233.5
69540.8
18143.5
7913.73
25462.6
16237.5
4447.27
1440.32
10154.7
75257.7
16421
54694
58560.1
26114.4
14317.5
20928.8
73229.6
16934
41527.6
18579.2
41890.7
22160.2
27011.3
42414
26010.6
9814.62
6065.68
37960.6
28866.4
66918.6
60037.5
4179.2
15909.5
39629.8
3364.76
1682.99
16176.6
44265.3
11046.3
1760.35
54590.4
4737.07
32171.1
38744.9
63970.6
74263.6
20231.9
1979.76
1354.17
42203.6
34208.7
6783.99
18244.2
41413.5
11725.2
18146.1
16608.9
1846.29
18886.5
12323.4
2716.15
20539.3
12250.7
36224.4
6014.4
1632.1
1347.15
2188.49
1677.08
1953.17
4589.38
1202.1
1396.29
1249.69
46304.4
71963.5
6300.57
1701.84
53848.4
2605.2
49456.6
4897.56
1850.2
35700.2
3881.82
30746.3
2189.15
41281.8
3187.32
48845.5
44619.8
1391.01
9199.92
15724.3
40571.7
34376.7
43291.7
71802.1
30263.5
34310.8
3378.23
29533.8
14253.1
18007.4
48796.2
60269.7
18314.3
5869.46
7130.04
5151.58
2795.04
1689.56
5308.68
29238
8198.79
2642.38
15697.5
22816.8
45546.3
25243.5
37077.3
10804.8
6266.39
44080.9
68515.1
30811.9
4653.88
70396.7
1482.9
28540.6
18531
6239.2
13741.9
5971.43
3803.07
30673.4
14042.3
42441.8
31758.3
26098.4
11267.7
1888.01
14408.8
4542.87
54668.9
46377.9
38230.9
61270.8
8034.22
11144.8
61600.3
51780
5911.14
64036.6
31283.6
19456.4
35467.9
27499.9
22314.6
15472
3273.94
39090.8
14869.2
26439.4
43734.4
7057.63
16539.3
70244
3920.22
2758.08
30312.5
53937.8
70489.6
14028.9
37761.7
49456
9218.72
74246.4
15144.3
10875.2
35882.6
2851.33
31328.6
34936.3
44089.6
53185.5
22507.5
11548.3
9146.2
8717.24
101
29220
45095.6
5080.19
3198.29
7966.18
15456.1
39222.2
62761.4
81187.1
12868.1
22797.5
3728.25
34871.9
16367.1
56469.9
39018.2
13097.6
33239
57509.9
57475.3
32587.8
30116.5
3403.08
25002.5
13770.3
2716.18
25029.6
78060.7
7954.58
46110.8
49443.6
5572.47
13163
16717.4
64062.8
9278.49
3252.52
25254.5
7566.6
61447.3
24527.7
36777.6
33758.5
20156.1
22376.6
39874.7
18073.2
41245.8
24822.7
3905.32
40131.3
88887.5
21306
8090.06
29549.9
51489.4
45396.7
33473.9
10150
38282.3
7150.86
9074.06
21997.9
27624.2
17968.5
17804
74026.8
72164.1
18287.1
38277.8
64196.4
2909.85
40642.1
119.91
23566
1969.41
34694
46651.1
58526.7
54091.2
72689.7
15033.6
52323.9
9989.39
57982.8
39963.1
41357.3
22985.1
38591.5
11596.1
26258.7
12976.6
69387.1
1777.69
3493.46
4204.65
10082.3
52389
84397.9
3718.11
3724.07
32273.4
30142.2
2700.33
18242.7
15905.6
15379.4
46092.1
9200.28
52947.6
36983.8
66925.4
11343
51221.8
58572.5
36490.1
35308.2
39317.5
21520
49096.2
11057.4
73318.2
17323.7
49466.9
39438.7
59796.1
38094.8
2789.75
3312.74
5669.13
21233.3
12275.2
2052.94
1615.92
28257.7
24105.1
12919.5
19360.7
38385.7
5812.46
73421.4
33405.9
57036.2
20942
27660.3
76230.2
4040.58
10987
46868.7
30001.8
12456.5
5004.22
26042.9
1839.85
3705.7
13128.8
33268.2
4273.14
12881.4
49433.4
2102.63
17298
5806.85
22301.4
18151.9
73434.4
77589.4
35914.5
3904.09
38239.1
33714.8
16600.6
32963.7
3861.47
63984.1
31691.4
70168
7622.27
34190
5523.78
2008.92
17820.5
28270
42500.8
12888.2
36197
36965
39370
18329.4
36508
2075.23
31929.1
51133.6
17966.4
45473.5
34950.8
21839
11754.1
20812
31506.5
11178.2
3707.81
2136.68
17921.5
7870.94
37116.2
51454
4359.98
80156
2731.3
3722.11
14974.6
39798.4
3953.49
31052.9
31383.9
2293.46
2044.98
45331.3
3973.92
2279.27
12645.4
9487.18
5215.37
24947
51698.1
39854.1
20018.2
24133.1
18084.5
37726.5
73239.7
20761.7
26618.5
9705.83
40075.6
20514.8
28893.7
1916.85
28522.4
3569.78
3644.12
13194.1
74204.3
30866.4
22116
53323.4
6980.47
18220.9
1311.28
7971.77
11018.8
19763.7
3651.74
12166.5
5884.31
2036.88
53964.4
1306.99
16322
18932.2
49060.8
1733.56
14219.2
11328.6
57363.9
8916.37
39655.2
55728.2
47779.5
74691.5
1801.14
64990.1
32515.8
3950.16
4959.7
7245.96
2455.7
10992.5
1512.52
39866.2
19116
25965.3
15442.4
11475.6
18003.7
27195
37800.8
44807.8
27009.2
15728.4
1738.24
14450.4
10105.1
74877.7
11666
20322.6
28935.6
19187.5
1820.72
74503.1
2058.68
3224.76
32460.8
10524.2
7078.38
33363.5
22579
18517.9
6878.93
3565.3
36862.7
1841.25
34749.4
11725.9
46474.3
1853.18
67391.5
31495.8
14372.4
19646
34210.8
1276
20429
1714.85
15788
3800.04
34774.9
23988.6
16242.7
6934.64
16209.1
13467.9
33087.7
66171.2
25462.4
5209.54
19398.7
59771.8
31673.1
19864.1
15091.5
33715.9
15381.5
3911.12
40868.2
14173.8
49410.7
13777.7
22504.4
1808.6
30758.7
2142.91
9103.53
9581.55
60484.9
47123.8
10491.9
40429
13368.9
34640.2
11376.9
80639.7
3163.06
14781.9
14376.7
38478.5
79826.2
5727.97
49233.2
70038.3
35322.5
45934.3
2326.45
2453.81
13980.3
4288.61
37835.9
38117.5
12437.1
52161.5
41339.5
2930.64
34887.8
27130.9
21238.9
18135
23743.6
14133.2
29659.9
32967.6
19997.6
3494.52
7917.94
15678.2
64561.8
10776.5
15335.8
5664.54
19926.6
31996.9
26809.5
15683.5
28012
3357.26
191.861
69792.3
1983.75
176.937
3440.29
10067.5
7832.75
48396.5
69273.5
37312.8
27260.7
10638.5
60637.2
2352.77
14374.2
69206
55598.7
15856.4
2164.8
73410.8
11606.4
1672.99
22930.8
22712.3
21675.1
64083.6
24157.5
17169.3
40381.9
2025.44
36774.1
11729
1806.88
1887.09
2284.55
13313.9
27342.6
17990.7
53479
3963.64
3372.27
21109
8243.36
2257.23
65958.9
62732.2
63775.1
21193.7
40094.7
3178.27
2072.91
23624.6
26761.9
16225.3
2232.94
2032.39
37300.4
64236.7
60727.2
17839.8
25636.4
75556.8
41264.1
9650.91
18957.4
2332.09
16529.2
33800.3
23682.4
21004.6
36720.2
33318.3
34333.1
1296.59
1955.87
3020.59
22702.7
12403.3
17831.1
23074
2711.77
5910.36
31704.8
20590.5
1286.78
33281.8
29480.4
44339.8
6167.67
14869.3
17311.3
3123.05
15819.3
38761.1
2545.53
21038.3
1539.33
42640.6
625.545
26784.5
83167.1
1827.48
23110.3
28432.1
24479.9
3375.63
5710.37
2189.15
40538.6
31286
14549
20817.3
24583.2
1178.7
45401.3
19544.5
32776.8
14366.4
8603.69
34940.3
25537.2
3748.97
1643.45
38088.1
4615.29
10281.5
2981.04
2523.04
22051.1
30473
32088.6
13417.9
26663.4
29991.8
5904.88
3661.82
10160
24262.8
58453.4
19626.4
44571.9
69749.9
6043.58
15263
41279.5
34331.4
19949.8
21337.8
4591.17
9435.76
26160.8
9453.44
15391.4
27447.6
28801.2
21390.9
41327.4
15869.8
1567.9
19774.4
32097.4
3261.85
19283.9
28748.4
4991.6
68789.9
15911
20991.3
73073.2
28972.7
24050.4
17130.4
3778.73
74095.1
72653.5
37452
4956.29
26085.8
1676.39
37187.9
4679.02
4227.6
3085.52
3078.51
60300.5
30599.9
31983.7
27407.3
50853.7
22638.3
43979.5
58477.1
67864.9
68255.3
52890.3
59820.6
2546.96
2900.87
17718.7
27281.1
10888.5
529.428
64811.1
14552.8
63251.6
19373.9
30209.1
21756.7
4241.54
11722.5
1516.57
28873.8
14681.1
18655.2
43962.4
48669.8
25931.9
1999.95
25122.4
1875.15
74187.4
16801.3
1510.56
5870.46
40667
23036.5
11497.5
1666.32
1572.19
51306.3
59293.2
15808.3
29507.2
17696.8
12191.6
2623.68
5352.5
26572.4
26695.3
16108.7
46146.6
37609.4
19823.2
41562
8630.83
66476.4
66914.2
17768.8
45315.4
13563.4
35579.8
2468.3
6627.49
49398.8
11384.2
26773.2
14571.8
15481.7
3300.39
10705.7
62508.9
16091.7
24880.9
19752.8
48927.9
4659.43
30637.2
14922.1
18030.9
64030.3
1590.04
66412.1
83984.8
65510.7
6809.61
29172.5
3212.19
21769.3
10970.4
25164.6
14116.1
17963
10107.8
40001.3
2609.73
44352.7
74612.1
26474.7
15750.9
33579.1
18645.9
14819.3
3320.72
47081.6
1942.92
11440.3
5608.96
20372.7
2570.76
3863.24
21422.8
1524.21
52281.4
3126.19
40165.5
3176.14
2673.31
14397.3
24728.3
103.21
15875.3
25312.5
11376.8
19742.3
1797.92
13127.5
6201.04
13708.5
27010
73814.7
20806.4
29160.5
9657.83
77113.9
4882.18
37939.5
62131.9
47867.9
2502.24
7913.96
4276.72
33377.6
8045.28
67807.9
2975.93
13273.4
8084.36
6622.59
30719.6
17309.6
61741.8
29977.5
19666.5
2903
35392.8
52813.9
30456.5
5139.84
31130.9
23311
5140.83
64855.3
41527.6
31825.7
21204.9
38322.6
88447.5
3625.87
28979.5
5151.51
77.4389
4745.71
39208.4
10306.2
9221.11
21252.7
21330.2
20937
42261.5
59011.9
22891.5
49453.7
1908.86
19812.8
31931.1
3683.47
19195.5
4878.09
89278.7
5508.12
9481.7
22454.6
41570
7275.45
18859.7
1776.08
51054.6
3019.22
64103.3
24584.4
15545.1
5569.9
26004.3
5684.71
41504.5
36488.8
327.081
20664.7
30473.8
15927.4
12471.6
14229.6
16204.4
13237.5
5228.07
67941.2
1635.2
20760.7
34199.2
45844.1
3127.45
50574.1
19338.4
1349.74
1793.45
1817.55
30004.2
89286.3
60911.3
11087.2
44853.4
5041.34
24853.1
29720
5503.62
46854.3
49038.9
7525.08
1780.15
27937
23286.1
49458.7
1877.59
36649.9
24623
30418.4
33828.9
29216.7
11525
4351.62
73072.6
24126.8
4549.15
26495.5
11923.6
5279.48
10219.9
5616.87
14558.6
27120.5
22770.6
5494.9
7517.92
37154.9
76915.6
31128.2
47926.6
3132.41
27964
10226.1
4593.5
25186.9
4392.07
26557.9
5917.34
64371
27717.6
14916.1
15772.5
16625.7
38465.4
2087.06
19520.8
69191.1
6712
14094
50800.2
48017.6
69879
6052.21
13433.7
37708.1
28295.9
16670.3
44560.5
17985.8
14366.4
39720.3
50681.6
25020.3
14081.4
39103.1
25088.8
40935.6
14458.7
48217.5
6696.91
2726.38
45870.2
59574.5
18571.4
8187.42
12947.2
37270.5
10057.3
21127.2
1518.36
40158.1
25667.1
15522.2
68306.4
5952.53
25944.8
48196.5
5525.52
11095
33687.3
9684.88
12664.4
48202.1
44549.9
20815.9
47543.3
21313.3
59770.7
47159.1
45001.9
1472.9
37769.9
29338
54725.3
20943.9
70216.6
3646.57
3787.52
1959.64
82194.6
2781.39
59481.6
7583.82
11374.4
2653.98
12077
40982
6186.67
2540.08
2550.83
6943.74
30168.6
3230.64
36474.6
22205.1
46810.2
13359.2
1928.12
62521.5
18416.3
21305.5
27505.4
34937.4
1825.36
3817.33
31354.8
1412.92
11839.4
23329.5
42551.7
41633.7
26923.2
16135.7
1499.97
3593.1
32360.3
11413.8
1752.16
72610.9
6270.2
33903.6
1759.43
33106.4
17748
39346.9
9392.82
2039.79
8761.05
19949.7
38927.5
16801.7
36319.4
23593.8
11951.4
28413.6
5838.72
1550.07
23906.9
10553.5
18362.1
87035.6
41795.3
19604.3
43897
75900.6
3438.83
15219.5
25940.7
15017.5
45564.7
39123.7
38104.3
38547.1
7984.53
36981.3
14158.6
1614.87
1597.42
26366.9
6871.23
5215.95
35751.2
64117.9
34389.6
33937.9
26020
19152.5
42868.6
27258.5
62645
22136.7
68912.1
4102.71
1682.03
31532.6
36290.3
6694.13
20184.2
23020.7
43226.3
28679.7
13567.4
28295.6
19854.8
5821.68
18168
47335.2
11380.8
36911.7
1791.8
2408.07
18946.8
4131.98
21857.9
41282
26634.1
71477.4
19856.9
10720
24394.8
50369.7
12462.9
29924.6
60838
13824.8
17801.2
2377.1
10312.8
22430.1
22408.7
2281.22
40028.9
32727.5
48527.9
25989.7
5807.95
4664.64
49332.6
48115
38049.7
3341.53
7871.36
15880.2
9238.5
72350.5
22197.3
29889.9
21072.4
1859.33
33235
19528.1
28595.7
28527.3
18865.3
45325
22400.6
6507.02
17064.9
42157.7
58337.9
32725.8
23631.8
78851.2
20626.6
69309.7
52921.4
29889.1
1729.5
21376.3
3977.03
51055.7
70282.1
35624.9
25009.1
3973.51
13152.5
39468.7
64835.6
11142.9
62648
35004.2
34770.9
38676.8
11415
46744
4150.57
42227.9
80859.1
6742.38
1197.94
33855.3
51520.7
4928.12
19163.5
8907.3
49154.9
38152.3
1646.76
8056.46
1644.58
23586.1
54743.6
69402.4
9663.98
30896.1
68855.9
30194.2
83150.5
22579.5
24718
16541.7
36320.5
24974.6
8475.55
5378.35
29522.3
64256.8
9970.35
41410.5
4013.85
20528
64459.7
2586.9
6986.2
67787
33662.5
32050.2
15285.2
15004.2
8026.88
33081.4
9201.87
63865.6
3707.3
16906.5
34835.3
11716.5
70076.9
46751
24431.6
7413.01
28738.2
26169.1
26673
37955.5
10879.8
28295.6
23890.1
49107.6
64339.9
14403.8
5744.24
65356
7667.98
28250
2272.72
7361.75
35723
69663.2
48056
15407.3
70193.5
14888.9
34302.1
2062.09
49037
76352.9
10015.2
23258.4
13720.6
16620.8
47569.4
48766.9
3336.2
44695.1
65083.4
6206.47
27539.9
45122.3
18704
42956
18425.8
30122.2
1317.01
1181.82
1843.95
1791.9
1308.47
3046.27
1527.13
1744.49
1229.1
19625.6
3458.98
64616.3
26779.7
2228.99
71884.2
14415.2
47365.5
19262
38610.7
62501.8
34994.9
23184.9
29799.7
4268.25
72440.5
2112.99
18771.9
35581.4
55865.3
47375
6152.1
23279.2
27761.9
45466.4
54829.6
25735.4
62805.9
25314.8
22984.1
37921.4
1668.03
3908.13
66819.1
30767.6
3441.67
38439
2507.45
3132.09
2962.2
2753.36
2551.66
29558.8
32412.7
63198.3
31182.6
29486.4
48580.6
29838.1
1690.05
14200.5
34030.4
58661.2
1455.83
1707.82
59685.9
56151.3
1966.77
12070.4
67309.7
5817.7
65300.9
18433.9
20385
1719.3
42122.8
25561.3
3830.43
10034.7
6253.97
38510
29092.7
1676.12
3276.88
35351.4
52089.8
30114
19366.4
24924.1
25035.1
31624.2
21344.6
33376.2
5270.57
40350.1
47098.3
16554.8
34719.9
34781.1
35062.3
30555.3
1840.24
31649.3
19333.7
14547.1
34349.4
22291.3
26415.2
43056.3
22147.3
64462.9
25169.6
74451.3
14429.1
63274.7
29652.7
59418.4
19206.7
73698.8
1584.87
9889.34
16435.1
69698.3
5613.11
74434
3699.7
1683.9
44246.4
50850.7
46584.4
12939.1
21073
1897.59
19104.3
27229.8
2344.83
83334.2
25655.2
32210.6
20344.2
75144.9
3465.07
15368.6
16642.7
3476.5
20139.6
32940.4
73167
37923.8
9353.27
64723.8
29334.3
21900.9
70375.5
31586
42886
1789.37
8356.15
24644.2
14341.6
44770.8
16408
51483.2
32774.2
33325.7
60066.7
21143.5
1516.53
3253.66
2284.95
18653
28418.3
28340.4
72337
22588.3
58916.3
23066.5
23732.2
58752
14995
20767
56040.8
35029.9
47093
72279.2
21517.8
8759.54
36413.1
15937.7
11750.5
5303.56
25077.2
31778.8
16181.4
37244.6
42652.7
71127.7
27194.7
61463.3
38829.5
20286.1
39225
20287.5
27427.4
23994.5
14225.8
1841.12
78525
20969.3
45043.3
36283.5
4728.58
13984.4
15864.9
6223.97
35448.9
38582.8
18683.4
57186.7
72423.8
32342.2
29474.7
2017.32
22324.1
67453.1
5733.45
5986.53
14179.8
11620.5
74784.8
15033.9
2657.84
25443.1
6236.97
27255.7
73286.3
4293.26
76228
3643.43
24926.2
19242.9
61751.5
24034.5
36930
34083.6
37242.4
33833.2
29837.5
18259.3
20379.8
71279.8
24268
1845.51
25009
13433.9
69599.1
63669.6
42234.2
75591.7
8104.98
29513
17638.1
11340.2
9059.76
3696.17
62428.9
37998
2984.98
32637.7
19519.4
24178.8
79675.8
46205.9
34056.4
3423.38
3066.48
2734.15
6184.85
3121.25
2015.04
36122.1
3644.53
67420.8
74683.8
51839.6
34558.1
68707.5
27552.5
47278.7
24596.2
22545.6
54407.8
5197.21
23320.7
37750.4
64431.7
4475.42
57419.4
3213.02
37939.9
4812.54
23279.7
46958.8
5333.32
39521.9
43278
11161.3
3194.93
42631.9
58713.7
7401.19
55746
46304.2
38842.5
19612.4
21586.8
34052.6
37381
66624.2
18068.9
39169.6
8015.67
22749.8
45323.3
20874.7
65813
33451.9
12778
40112.2
2030.61
23483.4
17122.8
14173.3
5548.74
3573.75
26077.4
18179.9
22780.1
8141.09
4858.12
66108.1
70210.9
27472.2
66541.1
72431.4
38381.3
8456.58
44862.6
20059.7
15469.8
10431.5
53374.2
59434.5
48112.6
11381.2
2704.1
4443.34
28104.3
69714.4
4341.24
64597.1
2188.68
48648.5
34901
3352.63
3747.82
18626.7
5259.35
74526.6
43833.3
73125.9
29640
44981.9
19435.5
32057.5
41926
60372.5
12260.2
3512.42
32756.7
2971.14
16922.1
16819.6
28863.5
40087.7
69883.1
49425.8
60325.3
21290.3
2225.55
12380.7
70760.9
62883.2
7716.95
19517.8
14674.4
36722.4
40639.5
11721.1
14644
22907.5
71290.3
40398.6
34916.7
10327.5
34327.9
74527.7
4243.52
27049.7
26659.9
35255.4
39771.4
43146.8
59546.4
8330.27
8364.28
60920.2
32714.5
5375.37
74218
73382
3606.69
23488.3
29797.5
49416.2
11582.1
20780.9
73066.1
25938.5
82389.1
12260.1
15224.8
21968
26064.8
2183.74
39194.8
36574.5
10538
3114.55
54473.8
21195.2
8997.51
21876.2
25376.1
10008.6
2067.1
17883.6
4708.78
36831
28059.1
1827.31
46868.3
15827.5
30186
18251.9
64540.2
22673.6
3831.14
20827.4
31955.7
18099.2
66446.2
4259.18
5111.48
42184.1
39655.7
28145.9
30996.3
39665.9
71545.9
42626.1
12336.4
63581.3
14571.9
33429.5
8912.37
10187.1
10556.8
54196.4
72586.8
27458.4
27715.9
12442
43904.2
64084.4
73725.4
4436.33
49460.4
4764.75
39606.2
29272.6
5651.14
80143.2
69740
54692.2
3301.71
1314.04
1188.35
1527.33
1384.68
1402.95
4670.96
1310.98
2226.18
1634.94
1038.15
2052.24
1226.06
1885.85
71399.3
37344.7
61813.6
18886.6
44575.5
5959.81
5650.87
2420.11
23046.3
9250.51
49407
47985.9
13413.7
10875.6
28400.5
12804.9
31440.8
67656.1
66160.3
42097.9
64470.6
1479.25
47055.4
35695.3
18777.9
46090.4
42182.4
37490.1
10832.6
68606.7
4476.32
11467.7
5562.89
17165.3
3750.58
49068.6
28005.2
59330
73482.9
23121.6
11750.7
25137.4
18703.1
13690.2
43611.7
20232.8