/*--------------------------------*- C++ -*----------------------------------*\
  =========                 |
  \\      /  F ield         | OpenFOAM: The Open Source CFD Toolbox
   \\    /   O peration     | Website:  https://openfoam.org
    \\  /    A nd           | Version:  8
     \\/     M anipulation  |
\*---------------------------------------------------------------------------*/
FoamFile
{
    version     2.0;
    format      ascii;
    class       volScalarField;
    location    "3e-05";
    object      nut;
}
// * * * * * * * * * * * * * * * * * * * * * * * * * * * * * * * * * * * * * //

dimensions      [0 2 -1 0 0 0 0];

internalField   nonuniform List<scalar> 
23640
(
0.00211181
0.00392943
0.000200152
0.0237124
0.00517269
0.00250286
0.00453887
0.00335411
0.0071481
0.000735729
0.00875221
0.00585544
0.00330934
0.00448301
0.00116255
0.00189867
0.00178165
0.00535433
0.00958144
0.0062326
0.00623978
5.32794e-05
0.0066274
0.000921192
0.00476849
0.00494701
0.00985356
0.00793195
0.00124248
0.00310057
0.00309924
0.208557
0.00585585
0.00633075
0.00397569
0.000933898
0.00175416
0.00257652
0.000265123
0.00123545
0.00579766
0.00690144
0.00510467
0.000441997
0.0488805
0.00623175
0.00209825
0.00468613
0.000739036
0.00321849
0.95316
0.0090962
0.000802264
0.00167041
0.0250847
0.000100444
0.00332855
0.00541471
0.00340514
0.0216673
0.00308336
0.00843058
0.00879196
0.00972327
0.00366003
0.00952243
0.00235063
0.00493589
0.000917001
0.00523965
0.000886375
0.00624346
0.00452127
0.00164046
0.0028606
0.0585478
1.77537e-06
0.00325112
0.00952877
0.00919816
0.00616756
0.00410811
0.00337856
0.00343187
0.00361449
0.000317646
0.00882293
0.000238915
0.00108197
0.00122532
0.00389601
0.00539991
0.00219139
0.0061558
0.0107126
0.00394593
0.00985963
0.000232961
0.00447806
0.00168368
0.00245341
0.00164055
0.000427978
0.00145078
0.00385582
0.00255408
0.00258658
0.00161237
0.00652313
0.00507454
0.00302228
0.00481022
0.00650083
0.00583968
0.000571196
0.00123626
0.00103375
0.00298285
0.00203929
0.00330352
0.000139213
0.215388
0.000255792
0.239645
0.00794052
0.000867698
1.23072
0.00222548
0.00250826
0.00570189
0.00863837
0.00383395
0.00335534
0.00886517
0.00154688
0.000189037
0.00669771
0.00483324
0.0088453
0.00967
0.00473385
0.00327733
0.00416526
0.0089497
0.00215441
0.00504127
0.00769279
0.00233545
0.00396899
0.000819359
0.00311462
0.00231218
0.00340838
0.0154942
0.00683398
0.00189977
0.00455039
0.00715936
0.00258222
0.00992296
0.00116348
0.000668774
0.000942656
0.00204678
0.00133286
0.00134001
0.00142595
0.00369105
0.00336082
0.00380927
0.00459147
0.000566494
0.0028457
0.00655017
0.00583532
0.00477166
0.00568999
0.00083818
0.00921065
0.00321383
0.0489654
3.53547e-05
0.00481505
0.00802422
0.00144381
0.00827208
0.00883147
0.00246745
0.0140689
0.00815466
0.00602924
0.00740551
0.160394
0.00340455
0.00152543
0.000710981
0.00377418
0.00221954
1.80908e-05
0.00583439
0.00942231
0.00127413
0.00248347
0.00689977
0.00844645
0.00356079
1.5785e-05
0.00625703
0.00102633
0.00201235
0.00467159
0.00494156
0.00277967
0.00360648
0.00231098
0.00536168
0.00480466
0.00634972
0.00297104
0.000694887
0.00279015
0.00806863
0.00936124
0.0059096
0.00121852
0.00636414
0.00565779
0.218874
0.000596142
0.00388434
0.00214052
0.00144784
0.00641177
0.00498685
0.00702046
0.00430475
0.00101506
0.00546926
0.00395793
0.00372844
0.00260277
0.000191778
0.00577924
0.0066221
0.0217669
0.0015304
0.0026233
0.000178255
0.0124087
0.00073613
0.0254493
0.00525183
0.00211119
0.00550548
0.00344514
0.0013866
0.000229756
0.00150257
0.00559095
0.00392467
0.0344735
0.00274875
0.00314033
0.00647272
0.00164978
0.00509639
0.00911905
0.00409158
0.00344554
0.00889462
0.0017575
0.00134768
0.000109341
0.0165493
0.00185801
0.00640625
0.00155189
0.208804
0.0108282
0.00644458
0.00078337
0.00157971
0.00776684
0.00923951
0.00399013
0.00778029
0.00338049
0.00163368
0.00502924
0.00924987
0.00454908
0.0015163
0.00526527
0.0027367
0.00881981
0.0044966
0.00577856
0.00167626
0.00530763
0.00185916
0.00368447
0.00970528
0.248674
0.0055741
0.00663557
0.00145878
0.00415578
0.00684337
0.0304677
0.00370529
0.0014943
0.00261565
0.00598749
0.00805069
0.00911257
0.00897455
0.00249062
0.000201437
0.0107267
0.00306548
0.00215952
0.00633303
0.00389577
0.00788864
0.00158165
0.00245604
0.000563554
0.00427615
0.00232242
0.567912
0.0070642
0.00344438
0.0080844
0.00887885
0.0049726
0.00544375
2.05168e-05
0.00194077
0.00436042
0.00525416
0.000163322
0.00308793
0.00680279
0.187295
0.00496836
0.00532106
0.00814824
0.00569199
0.00632905
0.00683017
0.00397658
0.00233816
0.00158619
0.00296914
0.0040141
0.00129202
0.0026191
0.00268702
0.00798584
0.00819758
0.00894296
0.00781172
0.00948771
0.00176472
0.00539945
0.00143186
0.00123475
0.00147083
0.0098238
0.00330103
0.00206283
0.000359591
0.00149143
0.00908492
0.00808023
0.00158354
0.016574
0.00120435
0.00428738
0.00931577
0.00510059
0.000390791
0.00504224
0.00365611
0.00540411
0.00153887
0.00154468
0.00134502
0.000816392
0.00128582
0.00936523
0.00200178
1.0084e-05
0.000834551
0.00353373
0.00128962
0.184986
0.00202986
0.00207825
0.00736346
0.00115754
0.00011413
0.00341709
0.00145579
0.00317979
0.00546448
0.0138577
0.00131617
0.00117355
0.0025987
0.00219331
0.0122456
0.0048353
0.00755032
0.00806325
0.00612602
0.00766312
0.00365099
0.00556747
0.00652725
0.00588859
0.00909014
0.00529099
0.00219166
0.000886242
0.00118492
0.20053
0.000330402
0.00766144
0.00282874
0.00153501
0.0585237
0.00192708
0.00614148
0.00928839
0.00517898
0.00227516
0.000834931
0.0025947
0.0105285
0.00894441
0.0066643
0.000450282
0.00114438
0.00931825
0.00296845
0.0076491
0.00157688
0.00924571
0.00147522
118.438
0.00234988
0.00612602
0.00206267
0.00381118
0.0016184
0.00480245
0.00410792
0.00310464
0.00104772
0.00550926
0.00398876
0.00643006
14.3255
0.0010938
0.00333914
0.00123231
4.22322e-05
0.00225304
0.00604395
0.00851128
0.00415523
0.0372014
0.00186743
0.0017361
0.00765018
0.00510812
3.67662
0.00261055
0.0400493
0.00344591
0.00134117
0.00779369
0.00115951
0.00118182
0.000878876
0.00327073
0.00151774
0.00317387
0.00185114
0.00935195
0.0238606
0.00298788
0.000653208
0.00437065
0.00544432
0.00228245
0.00650517
0.000767472
0.00267142
0.00379856
0.0100999
0.00116873
0.00523964
0.00420925
0.00343802
0.00363301
0.00153776
0.00151441
0.00312622
0.00683292
0.0021507
0.000802877
0.00040436
0.00602032
0.0069442
0.00635358
0.00140774
0.00651816
0.00896498
0.00221794
0.00899801
183.672
0.000902945
0.00497918
0.0065504
0.00534033
0.00595834
0.00524354
0.00340102
0.00568326
0.00139348
0.00325408
0.00177502
0.000225095
0.00368131
0.000808492
0.00307715
0.00160327
0.00623487
0.00218626
0.00420565
0.00437775
0.00524965
0.00177219
0.00509697
0.00100664
0.00188623
0.00450988
0.00447398
0.00302998
0.00507507
0.000179711
0.00065196
0.00261132
0.00341022
0.00534408
0.000165146
0.00704042
0.00686713
0.00203822
0.00345643
0.00533443
0.00576028
0.00953071
0.00652675
0.00295176
0.00821575
0.00110115
0.000827269
82.1902
0.00469139
0.00437729
0.00234187
0.0028825
0.00975564
0.00033684
0.000332775
0.00273463
0.00192749
0.0635871
0.00619107
0.00269901
0.00598783
0.00807912
0.000973856
0.00272321
0.00273349
0.00490128
0.00834929
0.0119402
0.00485399
0.00585455
0.00636172
0.00342587
0.0106509
0.00632496
0.00861201
0.00413113
0.00213387
0.00836684
0.00923611
0.00509701
0.00278621
0.00327754
0.000135618
0.00307711
0.00198742
0.00688044
0.00515101
0.00338524
0.00311171
0.0058221
0.00378563
0.00245278
0.00323214
0.000330835
0.00495888
0.00170948
0.202568
0.00860758
0.00584682
0.00624894
0.0121217
0.00486427
0.0101393
0.0051055
0.00891141
0.00398629
0.000474685
0.00134871
0.0035976
0.00057837
0.00325885
0.000927357
0.0292657
0.00391313
0.00521824
0.00188364
0.000837861
0.00646752
0.000238908
0.00315188
0.00336216
4.13153e-05
0.00616508
0.00893683
0.00818669
0.00156847
0.00571806
0.00179131
0.166825
0.00163265
0.003822
0.00626257
0.00738101
0.000740439
0.00326436
0.00336296
0.00223265
0.00771742
0.0058788
0.00127139
0.00229084
3.10762e-06
6.76002e-07
0.00228967
0.125854
0.00160777
0.00317461
0.213851
0.00476808
0.00571591
0.00175521
0.0107978
0.00153758
0.00367321
0.00516184
0.00192916
0.0101911
0.0238405
0.00604978
0.00539481
0.000704833
0.00698638
0.00146629
0.018524
0.00545659
0.00566577
0.201983
0.001244
2.1025e-05
0.00263875
0.0037622
0.00877767
0.0016988
0.0018941
0.00590421
0.00159617
0.0064242
0.0517822
0.0108404
0.00629058
0.000652493
0.00175618
0.00689123
0.000621728
0.00247555
0.00203521
0.00449767
0.0060922
0.000820322
0.00103025
0.00101647
1.81757e-05
0.000837882
0.00246635
0.00521212
0.00589878
0.000417174
0.00365769
0.00773782
0.0018364
0.00146672
0.00710421
6.57531e-05
0.00124142
0.00157812
0.00425946
0.0200888
0.00637295
0.00254555
0.0084418
0.00196319
0.00205404
0.00628027
8.1754e-05
0.00608819
0.00899321
0.00649409
0.00240643
0.00705536
0.0092357
0.00167908
0.00145902
0.00584408
0.00264953
0.000405359
0.00155998
0.00339408
0.0091925
0.00123489
0.0044252
0.00328173
0.00483619
3.84918
0.00967873
0.00161842
0.00878789
0.00100481
0.00285938
0.00340918
0.00370299
0.00532035
0.014534
0.000185465
0.0091581
0.00679507
0.00640661
0.00716611
0.00163744
0.00705819
0.00597258
0.0065566
0.00089971
0.00328851
0.00361207
0.00568694
0.0101388
5.40877e-05
0.00264867
0.248876
0.000382915
5.60253e-05
0.000253825
0.0217075
0.00818431
0.00141979
0.0079489
0.00650594
0.00181566
0.00108212
0.0027536
0.00408561
0.00138915
0.00172397
0.00117326
0.00688186
0.00184757
0.00125994
0.00578031
0.0029554
0.00445659
0.00299011
0.00164109
0.0079665
0.00519187
0.00836226
0.00629557
0.00333332
0.000806669
0.00106403
0.0053962
0.0123341
0.000220302
0.00558404
0.00445633
4.6933e-05
0.00116149
0.00669282
0.0060697
6.73784e-06
4.37558e-05
0.00796381
0.000164762
0.00201629
0.00854649
0.00270088
0.00196605
0.00383288
0.00347804
0.00960133
0.00185617
0.010364
0.00654392
0.00529257
0.00286634
0.00942248
0.000877266
0.00338797
0.0100322
0.00483221
0.00937226
0.00578132
0.00213562
0.00155486
0.015727
0.00357072
0.00100276
0.00511864
0.00305479
0.00340129
0.00163705
0.00253427
0.0100288
89.2917
0.00360679
0.00421986
0.00593592
0.00292746
0.00510587
0.00203131
0.0038063
0.000173296
0.00891532
0.00317536
0.00936705
0.00241164
0.073673
0.000621774
0.00248744
0.00184449
0.00680155
0.00767204
1.50512
0.00130371
0.000547004
0.00272625
0.00146797
0.00124629
0.00268237
0.00294734
0.00987478
0.00319195
0.00167008
0.00462346
0.00877513
0.0083937
0.0179108
0.00257657
0.000347361
0.00929981
0.00661417
0.000502919
0.000291485
0.00668099
5.2531e-05
0.00218663
0.000483741
0.00136129
0.00923758
1.81785e-05
0.00510585
0.00319718
0.00446898
0.000357821
0.00486199
0.0020723
0.00517915
0.00196734
0.00300717
0.00130533
0.000777162
0.00455232
0.00187502
0.00376298
0.00889841
0.00495108
0.00819596
0.00837006
0.00133288
0.00293993
0.00308522
0.000666653
0.0014143
0.000686844
0.00138244
0.00568537
0.000812348
0.0122027
0.0102444
0.00587111
0.000121623
0.00429543
0.0393493
0.00485397
0.000798955
0.003215
0.00457665
0.0108522
0.000317255
0.00121215
0.000168183
0.0023382
0.00859591
0.00423656
0.0033019
0.00327326
0.00151111
0.0026982
0.00568719
0.0081252
0.00213179
0.000721835
0.00413707
0.00299022
0.00180622
0.000174506
0.00460059
0.00141036
0.00357173
0.00379339
0.00795429
0.00228922
0.00660681
0.00226646
0.00505182
0.00967406
0.00345663
0.00489489
0.00915157
0.00195804
0.00763373
0.0057521
0.000411691
0.00315384
0.00483126
0.000734148
0.0056428
0.00457457
0.000323736
0.00354887
0.00657123
0.00519597
0.00499234
0.00489098
0.00118064
0.00316519
0.00187794
0.00978079
0.00201476
0.0157025
0.00484561
0.00495307
0.00172998
0.00544899
0.0112555
0.00341859
0.0053619
0.00187587
0.00420792
0.00233283
0.00993477
0.00819333
0.00115273
0.00826691
0.00324543
0.00158359
3.20371e-05
4.74092e-05
0.001767
0.00426679
0.00245847
0.00447705
0.000763787
0.00341065
0.00283954
0.0046835
0.006245
1.32586e-05
0.00835483
0.104466
0.00145477
0.00133197
0.0076821
0.00164298
0.00468272
0.00687617
0.000278733
0.00498369
0.00926685
0.0067121
0.00317783
0.00653916
0.00187825
0.00416509
0.0035002
0.00136779
0.00508007
0.00207983
0.00221443
0.00379339
3.09415e-05
0.004512
0.00172298
0.0051947
0.00606183
0.0075103
0.0796861
0.00354621
0.00397657
0.00567546
0.0533219
0.00100937
0.00501855
0.00381759
0.0084419
0.00422338
3.57208e-05
0.00698139
0.00315578
0.00112421
0.00176074
0.0126299
0.00518364
0.00212638
0.000715384
0.00778742
0.00754195
0.00133747
0.00187106
0.00125517
0.00111553
0.00184307
0.0017179
0.00433323
0.00939202
0.00313665
0.00417152
0.00145904
0.00326525
0.000875095
0.00322971
0.00853529
1.24769e-05
0.00103488
0.00223744
0.00965362
0.000173283
0.00513838
0.00782584
0.00476731
0.00265315
0.00457774
0.000740274
0.00289419
0.00335959
0.0017333
0.000543848
0.004765
0.00533295
0.000921623
0.000441695
0.0184071
0.00151821
0.00623386
0.00523365
0.00158192
0.00534279
0.00753354
0.002411
0.00383482
0.00303884
0.00307637
0.0041184
0.00514856
0.00591942
0.00915511
1.82929e-05
0.00830576
0.00154702
0.00315817
0.00200892
0.00134511
0.00158327
0.306116
0.00424718
0.00672981
0.00423623
0.0558394
0.00566309
0.000526237
0.000529526
0.00550781
0.127245
0.00157725
0.00209146
0.00425942
1.55675e-05
0.00119576
0.0108434
0.000216901
0.00144611
0.00752734
0.00337794
0.00204469
0.0177564
0.00373696
0.00148765
0.00862041
0.00293777
0.00251286
0.0035223
0.0028453
0.00633826
0.00151387
0.00714943
4.04001e-05
0.00855671
0.00689297
0.00558651
0.00031159
0.00661732
0.00226292
0.00236345
0.00526351
0.00603572
0.00110162
0.00769959
0.00962927
0.00540486
0.000519
0.00438783
0.00022445
0.00093439
0.00118734
0.00415752
0.00565232
0.00750436
0.00471063
0.0019111
0.00852449
0.00821259
0.00145963
0.00177392
0.00756215
0.00193133
0.00110996
0.000837456
0.002489
0.00370601
0.00344548
0.00206669
0.00425713
0.00475988
0.00584048
0.0016376
97.3062
0.00285557
0.00867171
0.00505264
0.00573955
0.00869226
0.00653827
0.00151181
0.00837019
0.00066246
0.00100088
0.000279158
0.00801779
0.00121973
0.00665175
0.00622872
0.00486372
0.00187153
0.00523754
0.0031628
0.0100039
0.00312853
0.00119123
0.00415341
0.000555137
0.00365994
0.00745214
0.00818901
0.00535406
0.0110281
0.00603695
0.0424289
0.00524935
0.000574065
0.00393105
0.00921862
0.00348642
6.08929e-05
0.00474575
0.00576696
0.00286046
0.000514013
0.00519344
0.00662901
0.00372401
0.00282676
0.00236012
0.00141718
0.00102561
0.00503443
0.00449886
0.00324101
2.45282e-05
0.00168049
0.000702597
0.0062073
0.00161221
0.000248741
0.00912028
0.00294545
0.00215732
0.0027135
0.00558923
0.00946735
0.00387376
0.0035373
0.00964932
0.00441214
0.00421886
0.00532533
3.4664e-05
0.00132058
0.00449013
9.70205e-05
0.000377423
4.63281e-05
0.000142507
0.00480472
0.00564862
0.00868596
0.00854613
0.00592018
0.00388132
0.00135378
0.00844852
0.00521047
0.00926007
0.000740137
0.0036274
0.00178813
0.00320701
0.000148723
0.0072934
0.00594588
0.00118868
0.00110191
0.00359958
0.000297713
0.00957163
0.00896452
0.00355861
0.00252206
0.00484938
0.00577246
0.00274924
2.41405e-05
0.0030245
0.00279118
0.00338183
169.099
0.00197658
0.00311671
0.00419856
0.0086817
0.008405
0.00584502
0.00417968
0.000433523
0.00860629
0.00930474
0.00441586
0.00510325
0.00175396
0.00517842
0.00122101
0.0015866
0.00607381
0.00136842
0.00351467
0.00130632
0.00216863
0.000735202
0.00719228
0.00468904
0.00609636
0.00364392
0.00564831
0.00377327
0.0041635
0.00458967
0.00618258
0.00793029
0.00610834
0.00128717
0.00135277
0.00377782
0.00180138
0.00185291
0.00298732
0.00481974
0.00929926
0.000894752
0.00774732
0.00010323
0.00635366
0.00296451
0.00413475
0.00654882
1.10257
0.00105141
0.0012431
0.00322593
0.00383691
0.00033528
0.00288976
0.00337323
0.00463791
0.00509675
0.000322744
0.136841
0.00366567
0.0151295
0.00267029
0.00138382
0.0013216
0.00597425
0.00595424
0.00656677
0.000303486
0.00908292
0.00213623
6.7866e-06
0.00134773
0.00534979
0.00362138
0.00311165
0.00761663
0.00130991
0.00236538
0.00525582
0.00785801
0.00980902
0.0087028
0.00538787
0.00230912
0.00245873
0.00126827
0.00218113
0.00507967
0.00761557
0.0097372
0.00690994
0.00626368
0.00655706
0.00156012
0.00194752
0.0010211
0.000451055
0.00135944
0.00134695
0.00878785
0.0105497
0.000909027
0.00602646
0.00145348
0.000611464
0.00161896
0.000758825
0.00591367
0.002471
0.00555629
0.00416796
0.00484182
0.00791387
0.007738
0.00573136
0.00809871
0.00278909
0.00161404
0.0018633
0.00557652
0.00234176
0.00762273
0.00329378
0.00464086
0.00270203
0.000333615
0.0019901
8.33646e-06
0.000493776
0.00183727
0.00791995
0.00109276
0.00318793
0.00374441
0.002113
0.00155326
0.00205113
0.000616601
0.00100434
0.00382388
0.00874343
0.000109369
0.00326417
0.00889365
0.00341449
0.0061912
0.00270082
0.00479133
0.0104035
9.64575e-05
0.0451611
0.0069001
0.00514997
0.000240944
15.0113
0.00304806
0.00518064
0.00246276
0.00375643
0.00510374
0.00104684
0.00854241
0.00604979
0.00572838
0.000415897
0.00478634
0.0155453
0.00250779
0.00583806
0.00919442
0.00100197
0.000415666
0.00277906
0.00425105
0.00969953
0.00977022
0.000861103
0.00473432
0.00162267
0.00287948
0.00133958
0.00527426
0.000980593
0.00665913
0.00183699
0.00264047
0.00459179
0.00530813
0.0108621
0.0054441
0.00266058
0.00590211
0.00247288
0.00262714
0.00578384
0.0138212
0.057895
0.00634013
0.0211574
0.00138849
0.00768112
0.00115935
0.000828754
0.00620096
0.0037406
0.00439469
0.00347138
0.0106142
1.47085e-05
0.00295152
0.00968598
0.00437894
0.0210429
0.00509382
0.00452194
114.703
0.00256201
0.0038961
0.00614479
0.00631169
0.00649983
0.00283334
0.00138247
0.000974063
0.00203855
0.00533166
0.00464799
0.00203763
0.00595517
0.00812122
0.00225263
0.00564421
0.00537186
0.00130028
0.00226073
0.00941403
0.0044111
0.00217975
0.00167683
0.00019447
0.00197769
0.00348621
0.00533098
0.00226772
0.00440761
0.00211381
0.00644758
0.000457584
0.00456448
1.18297
0.0140256
0.00264683
0.000445326
0.000479919
0.00062047
0.00160686
0.00508906
0.00496184
0.000403764
0.0048644
0.00268032
0.00892155
0.00141204
0.00238394
0.00188499
0.000131534
0.00430437
0.00644058
0.00573435
51.2402
0.00512465
0.00296801
0.00168907
0.0151502
0.00398006
0.00534855
0.00887984
0.00282889
0.00772168
0.00347898
0.000786722
0.00797352
0.0175607
0.00595288
0.00766011
0.00159553
0.00274255
0.0109348
0.000679846
0.003163
0.0011856
0.00934874
0.00474431
0.010586
0.00941003
0.00694744
0.00547521
0.00113802
0.00378511
0.00545341
0.0100037
0.0012054
0.00133898
0.133888
0.0103776
0.000165763
0.00139493
0.00163007
0.00226794
0.00298861
0.00804446
0.00347855
0.000111973
0.010111
0.008685
0.00300975
0.00300946
0.0124983
0.00148362
0.00814604
0.00636152
0.00506098
0.00735737
0.00120372
0.0044122
0.0061979
0.0046493
0.0021169
0.00802205
0.00836815
0.00858831
0.000185334
0.00306297
0.00372387
0.00689355
0.0471243
0.00583568
0.00230357
0.0899452
0.00566474
0.00612733
0.00323841
0.0163568
0.00186011
0.00376478
0.00270995
0.00571366
0.0128935
0.00142658
0.00497401
0.000630931
0.000317011
0.0038983
0.00294079
0.00760362
0.00138779
0.00343518
0.00277473
0.0061678
0.00781928
0.143955
0.00172317
0.00051803
0.00192376
0.00847396
0.00598766
0.00178557
0.000342646
0.00261881
0.118897
0.0016255
0.00143181
0.00299343
0.00165511
0.00151224
0.00143784
0.00355036
0.00706551
0.00536418
0.00577487
0.00156464
0.00494195
0.00888665
0.00653323
0.0064757
0.00443953
0.00573058
0.00203584
0.00175211
0.0037778
0.00135167
0.00902466
0.00456906
0.00320568
0.000845504
0.0013659
0.0105416
0.00230963
0.0109044
0.00246562
0.00340458
0.000378139
0.00241533
0.00782221
0.00590004
0.00654584
0.00846425
0.00712788
0.00602474
54.9658
0.0010791
0.00179544
0.00614399
0.006513
0.000765378
0.00364743
0.0130657
0.00568321
0.00320875
0.00894604
0.00170954
0.000901267
0.000100386
0.00475001
6.50122e-05
0.00520837
0.00945565
0.000328871
0.00916294
0.00162563
0.00152862
0.0023117
0.00934579
0.00485378
0.00544265
0.00570885
0.00766597
0.00412551
0.000227331
0.0020641
0.00152734
0.225265
0.00314558
0.00366108
0.00995513
0.00430252
0.00342642
0.00529782
0.000383404
0.00470455
9.90189
0.00486678
0.00994842
0.00672948
0.00214643
0.00115519
0.0243881
0.0194689
0.00114018
0.00513918
0.0109116
0.00273129
0.00867884
0.00113595
0.0107949
0.00158528
0.00279035
0.00106122
0.00818039
0.00873817
0.00891816
0.00344933
0.0162667
0.000266934
0.00320661
0.000295463
0.00393071
0.00964099
0.00735169
0.00574161
0.009099
0.00216143
0.00469199
0.00297826
0.00975704
0.00461203
0.000833993
0.00538594
0.00514703
0.00184047
0.00870692
0.000661626
0.00294924
0.00123837
0.003162
0.00715859
0.00465124
0.00764059
0.00592061
0.00322021
0.00533454
0.00452002
0.00260706
0.00154037
0.00345395
0.113059
6.53059e-05
0.00144916
0.00591871
0.00333264
0.0043453
0.00662904
0.0108532
0.00698052
0.00519339
0.00184477
0.00107433
0.0850511
0.00266708
0.00325984
0.00532465
0.0100036
0.00434612
0.00856059
0.00741582
0.00137308
0.00808622
0.00238617
0.00225827
0.00547855
0.0019835
0.00494787
0.00371541
0.00125061
0.00127712
0.000778488
0.0010982
0.000866623
0.00181837
0.0011043
0.00104349
0.000976342
0.00764128
0.00834154
0.00245973
0.00155083
0.0107055
0.00203637
74.738
0.00252683
0.00130953
0.00585827
0.00165136
0.00921521
0.00178009
0.00372755
0.00263506
0.00620554
0.00435157
0.00156543
0.000515504
0.00478793
0.00737107
0.00104432
0.0028048
0.00389356
0.00655281
0.00695735
0.00116643
0.00042023
0.00475175
0.00203103
0.00278455
0.00185825
0.0100185
0.00374076
0.00394427
0.00347267
0.000792691
0.00138998
0.00330277
0.00520001
0.0036656
0.00246987
0.0056976
0.000159404
0.0337
0.00564759
0.00251084
0.00189798
0.00303478
0.0326551
0.0084941
0.00501846
0.00137197
0.00425694
0.00138028
0.00789454
0.0103459
0.00301051
0.00429683
0.00295247
0.00315491
0.03099
0.000235452
0.00175312
0.00570715
0.00300574
0.00504494
0.00133659
0.00129933
0.00246817
0.00131581
0.00555302
0.000208497
0.0049466
0.000118815
0.00421928
0.00583821
0.00696132
0.00299721
0.0108341
0.00336793
0.00971603
0.0325869
0.00883718
0.00930535
0.00495596
0.00148569
0.00622522
0.00461489
0.000650894
0.000731794
0.00391683
0.00478522
0.00908001
0.00155782
0.00173887
0.00645635
0.0105097
0.00954637
0.00299991
0.00855509
7.98852
0.00239433
0.00558485
0.00416829
0.00195827
0.0082256
0.0016956
0.0325951
0.00263414
0.00216842
0.0105215
0.0167168
0.0044015
0.00378915
0.00361579
3.23837e-07
0.00644329
0.0078558
0.00159803
0.00295039
1.67894e-05
0.00256675
0.00031353
0.00166827
0.00400706
0.0045176
0.00105325
0.00313777
0.00453809
0.0072594
0.00442932
0.000307334
0.00474912
0.00089115
0.00650167
0.00789794
0.00104769
0.00895253
0.00298833
0.00573009
0.00472685
0.00255976
0.000188275
0.00353376
0.000118056
0.00972732
6.18163
0.00357676
0.00350106
0.00493727
0.00577177
0.00390481
0.0025666
0.00575588
0.00351313
0.00679453
0.00346344
0.00284254
0.00510792
0.00622431
0.00504369
0.00255002
0.00920562
0.00143895
0.00370771
0.00182251
0.000454042
0.00319053
9.33627e-05
0.00356572
0.000416139
0.00579544
0.00691062
0.00146178
0.00160562
0.00623313
0.00396968
0.00104265
0.0156485
0.0056352
0.00584538
0.00150945
0.00585037
0.0080907
0.00917667
0.00994504
0.0103393
0.000810009
0.00355538
7.04533e-07
0.00934518
0.00174528
0.0036382
0.00341955
0.00884954
0.00577886
0.00805883
0.00444898
0.00305062
0.00149798
0.00714043
0.00996027
0.00740747
0.00279615
0.00859742
0.00120747
0.00616255
0.00442854
0.00809501
0.00188632
0.00211709
0.00254882
0.00404794
0.00278219
0.00217105
0.00262691
0.00228474
0.00198751
0.0056554
0.00120757
0.000681055
0.00345852
0.00526049
0.00501629
0.000676683
0.00817634
0.000567674
0.00919765
0.00235219
0.00408336
0.0104532
0.00681447
0.00471312
0.0098433
0.0150487
0.364928
0.00414866
0.0081836
0.00364276
0.00278354
0.00665816
0.0101243
0.00329476
0.00231779
0.0025014
0.00286938
8.74665e-05
0.00507404
0.0012402
0.0014296
0.0248061
0.0188207
0.00403547
0.00928846
0.0048338
0.00368201
0.00881358
0.00139532
0.00846729
0.0141158
0.00524895
0.00441511
0.00316023
0.00416534
0.145275
0.00480539
0.0018808
0.000128955
0.00589322
0.00153906
0.00182174
0.00537019
0.00860801
0.00312791
0.00534205
2.87261
0.000757166
0.00352655
0.00371317
0.00513401
0.00222521
0.00792448
0.00381328
0.00705646
0.00318732
0.00509435
0.00247432
0.00763243
0.000939114
0.00316231
0.00353721
0.00554641
0.00930574
0.00411775
0.00376606
0.00194001
0.00152759
0.00929869
0.00809669
0.0076534
0.00523583
0.00661448
0.00601528
0.00596035
0.00197263
0.00578276
0.00135405
0.00258293
0.00787901
0.00523607
0.0909531
0.00701216
0.00498904
3.99047e-05
0.0132197
0.00339448
0.00426748
0.00299906
0.00107094
0.00610786
0.00320093
0.00660749
0.0079724
0.00271066
0.00646631
0.00257222
0.00314313
0.00260472
0.000769202
0.00304061
0.00659902
0.000536436
0.00137749
0.00143572
0.0069561
0.0023539
0.0018794
0.00333428
0.00364637
0.00329301
0.0205424
0.00831618
0.000700008
0.0101498
0.0166264
0.00607686
0.00163795
0.00458564
0.0132324
0.000934083
0.00130097
0.0154291
0.00629642
0.0182085
0.000894742
0.00556328
0.00140681
0.00182135
0.00536307
0.00698686
0.000289714
0.0049738
0.00786357
0.000368105
0.00437478
0.00125486
0.0042237
0.0040803
0.00550384
0.00135009
0.00436766
0.00312336
0.00139377
0.00092656
0.00118734
0.00505732
0.00824304
0.000554741
0.00143089
0.00132979
0.000496893
0.00908779
0.00121024
0.00671589
0.00674905
0.00085529
0.00771358
0.00160002
0.00936261
0.00226938
0.00117466
0.00271826
0.003965
0.00234912
0.00428535
0.00140956
0.00721316
0.0110826
0.00616367
0.00455379
0.00425399
0.000507615
0.00260625
0.00607496
0.128079
0.00630321
0.00538125
0.00150218
0.00466828
0.00273528
0.00611171
0.00437529
0.0131052
0.00778552
0.0112279
0.00140812
0.00761771
0.0011716
0.00146281
0.00461345
5.89225e-05
0.00390221
0.00515902
0.00205923
0.0052038
0.000386604
0.00193911
0.00182016
0.00138438
0.0141605
0.00434895
0.0041876
0.00130974
0.00969502
0.00644946
0.00468096
0.0120168
0.019482
0.000562972
0.0132607
0.00151564
0.00495785
0.00315473
0.00518209
0.00346948
0.00485736
0.00331313
0.00699563
0.00460978
0.00291124
0.00189348
0.00396568
0.00143009
0.00535982
0.00065662
0.00647283
0.0100494
0.00547076
0.00120266
0.00355331
0.00315769
0.00626626
0.00473372
0.00391488
0.00248126
0.00927397
0.00137632
0.00203819
0.00132522
0.00376691
0.00128835
0.00819501
0.00419717
5.78378e-05
0.000698841
0.00458013
0.00296658
0.000448048
0.00651928
0.00255801
0.00261355
0.00475154
0.00613478
0.00665177
0.0036831
1.14752
0.00919361
0.000201693
0.0060605
0.00178737
0.000922813
0.00428026
0.00168096
0.000485598
0.00983379
0.00434779
0.0079495
0.0774998
0.00236785
0.00826395
0.0243393
0.0073666
0.00562895
0.00541173
0.00441135
0.000327667
0.00381594
0.000130561
0.00267743
0.00418305
0.00347123
0.00334139
0.00490537
0.00567129
0.00367323
0.0124411
0.00813249
0.00217121
0.0042534
0.00643241
0.00204342
1.04744e-06
0.0091902
0.001483
5.62323e-07
0.00302903
0.00297517
0.00301923
0.00391353
0.00966749
0.00197325
0.00623417
0.00241285
0.00547862
0.00139759
0.00506438
0.00420939
0.00194453
0.00470797
0.00172284
0.00885652
7.28625e-05
0.00154346
0.000183226
0.00212214
0.00255141
0.00621821
0.00143128
0.00816893
0.00755069
0.00135394
0.0096274
0.0011938
0.00152391
0.00123934
0.00209005
0.00226255
0.00419001
0.00162407
0.00778646
0.00321555
0.00255074
0.00553228
0.00428561
0.00139656
0.00928814
0.00331489
0.00957491
0.00938862
0.00234706
0.00264771
0.000752664
0.00517454
0.00639515
0.00581383
0.0015929
0.00190613
0.00550705
0.0107744
0.0103208
0.00373561
0.00427048
0.00679792
0.00118197
0.00251154
0.0106861
0.00169998
0.0027849
0.00860435
0.0155017
0.000183682
0.00978241
0.00153295
0.00668426
0.00113836
0.00140523
0.00276818
0.00580472
0.00438394
0.00918286
0.00543403
0.00107795
0.00374106
0.00249021
0.00559198
0.00113664
0.000942415
0.00647682
0.00530525
0.00225191
0.0031535
0.00187113
0.00263448
0.00499048
0.00059003
0.00106692
0.0088859
0.00143994
0.00451819
6.96847e-06
0.00555701
0.00572862
0.000946831
0.00826618
0.00830605
0.0196659
0.00140688
0.00353441
0.00168433
0.000279002
0.00578682
0.00434932
0.0048142
0.0199287
0.00120377
0.00173874
0.00409679
0.00185344
0.00506861
0.00297196
0.00662668
0.0057338
0.00229596
0.00151949
0.00709561
0.00264817
0.00327783
0.00205183
0.00171313
0.00562599
0.00644042
0.00103591
0.00422222
0.023349
0.000864439
0.00182189
0.0020187
0.00384267
0.00216077
0.00698106
0.0094826
0.00119836
0.00441541
0.00298434
0.0054677
0.00701776
0.00474837
0.0122743
0.000135592
0.00332446
0.0024406
0.00582443
0.000793797
0.00488319
0.00638036
0.0268512
0.0148608
0.00115773
0.00668443
0.00143803
0.00964188
0.000875595
0.00166529
0.00319779
0.000238352
0.00269434
0.0089577
0.00126649
0.00561248
0.00849147
0.00558252
0.0183685
0.0048934
0.00313875
0.0076783
0.00807363
0.00328469
0.00126402
0.0193909
0.00136122
0.00324789
0.00319848
0.00190801
0.00186878
0.0018421
0.00120523
0.00639261
0.00261979
0.0198239
0.00593148
0.00817703
0.00362244
0.00584972
0.00771984
0.00871317
0.000935507
0.00655701
0.00111188
0.00274537
0.00515918
0.0058116
0.00430449
6.8724e-06
0.00984143
0.00418761
0.00875369
0.00514053
0.000324345
0.00567425
0.00323608
0.00514909
0.0013833
0.00561011
0.00469722
0.00922407
0.00284741
0.00623843
0.00577136
0.000207122
0.00612112
0.00118439
0.00708667
0.00557324
0.00120978
0.00368831
0.000736819
0.00477763
0.00397034
0.00111981
0.0013273
0.00828934
0.00412506
0.0050618
0.00444689
0.00476404
0.00447705
0.00214793
0.00349613
0.000177641
0.00101061
0.00576673
0.00136404
0.00510736
0.0109548
0.00123175
0.00426783
0.00327378
0.00934613
0.00922345
0.00274277
0.00472426
0.00471606
0.00160058
0.00257999
1.5724
0.00435686
0.00618023
0.00206639
0.00468968
0.0030663
0.0041174
0.00612134
0.00626562
0.0140619
0.0098418
0.712117
0.00272465
0.00340214
0.00524321
0.0043586
0.000858242
0.00129163
0.00337132
0.00557998
0.00929785
0.000219851
0.00212266
0.00186091
0.000165142
0.00410408
0.00432941
0.00554093
0.0091794
0.00279801
0.00633624
0.00182482
0.0029227
0.00463048
0.0058312
0.00468059
0.00290016
0.000530616
0.00517519
0.00148976
0.161168
0.00138833
0.00146482
0.00232689
0.00546862
0.00197494
0.00233129
0.0059494
0.00157183
0.00815
0.00272045
0.000798417
0.00246162
0.00260542
0.00474307
0.00552424
4.50774e-07
0.00487062
0.00613262
0.00453961
0.0067116
0.00140288
0.00456102
0.00376557