/*--------------------------------*- C++ -*----------------------------------*\
  =========                 |
  \\      /  F ield         | OpenFOAM: The Open Source CFD Toolbox
   \\    /   O peration     | Website:  https://openfoam.org
    \\  /    A nd           | Version:  8
     \\/     M anipulation  |
\*---------------------------------------------------------------------------*/
FoamFile
{
    version     2.0;
    format      ascii;
    class       volScalarField;
    location    "3e-05";
    object      p;
}
// * * * * * * * * * * * * * * * * * * * * * * * * * * * * * * * * * * * * * //

dimensions      [1 -1 -2 0 0 0 0];

internalField   nonuniform List<scalar> 
23640
(
534.253
539.142
48.6989
465337
971.118
6792.84
684.966
2568.07
3287.88
6264.6
429119
1422.6
1020.8
644.656
10542.2
5889.3
242.07
289465
368177
3849.39
412817
26.6487
410150
407440
1632.43
1032.02
34384
5544.84
131.005
1094.74
787.928
539337
413481
1997.1
3927.9
9401.41
258.29
416.422
53.3548
440853
1522.46
3492.25
1049.43
44.5811
467986
47757.8
511.783
805.088
6267.11
2687.85
486758
297707
8376.8
258.709
465314
5322.62
7307.61
855.558
331.013
471417
754.284
48999.3
455701
309918
381.586
307974
5114.73
1459.99
269048
1129.52
451793
1962.39
370906
222.273
6016.71
535693
6166.25
992.515
371125
453034
58299.3
10851.9
328.367
333.645
374.504
6452.97
296001
431716
379809
10670.9
437.283
1198.67
5822.26
372120
291555
1753.43
316668
6991.17
3356.2
5945.86
6528.1
262.316
407159
166.378
2754.09
385.752
465002
185.111
1536.02
3074.47
656.81
371814
2388.23
1458.43
24903.3
91.4187
10442.4
600.292
469.905
1367.27
413610
473456
8067.28
477112
12891.1
428962
503247
13591.1
6683.86
1246.58
9059.44
6498.89
1085.2
19611.5
172.103
431899
424851
1544.79
427146
329836
3292.26
7581.56
366257
429407
365498
2126.31
436880
441848
446.221
295426
2829.65
7341.73
346.801
459658
6545.5
175.546
688.638
2118.58
4620.96
33697.6
11176.9
6353.46
9260.61
4023.9
91.2978
73.645
459916
30644.6
465182
6394.72
793.339
21964.3
5774.14
1420.66
460231
460547
1285.1
26650.3
453712
1159.22
467928
4145.36
1536.79
4199.55
142.731
149149
12025.6
4081.29
472171
4769.63
4819.19
431690
472920
342.312
192.256
438057
2831.86
8801.37
4747.82
22447.1
399342
23.3367
456.344
3457.68
382530
364.981
4655.23
411080
16745.6
460242
713.852
1370.12
1186.65
371.028
7903.74
2391.53
875.295
3610.96
4039.32
41.1011
1291.48
428822
400254
1458.35
405825
2254.18
1048.86
475534
41.3491
437.142
581.284
163.068
2973.39
1296.69
2090.71
10545.6
451229
2403.78
446.569
55812.4
7221.52
24038
1535.55
3635.23
464436
232.974
1806.86
5097.49
453648
422310
471799
1046.63
497.615
460553
338.933
441398
34.8576
180.72
466098
465783
467356
654.89
6069.31
1557.16
119.598
1064.77
22622.3
3574.72
339.24
281536
3933.64
76.7888
412646
472088
13703.8
2109.5
145.042
473887
311158
1362.24
430205
75.357
143074
433158
5213.13
49577.5
3552.01
9893.93
602.02
431961
2280.06
192.662
2257.65
3991.74
426029
2344.36
1251.58
237.092
1211.58
366.108
32674.7
314937
474176
1585.4
420820
83.2933
7437.4
31381.4
466501
367934
171.235
11641.9
460379
370046
397266
20931.5
3816.05
46.9002
297145
6055.32
717.45
2075.3
3998.74
5297.91
169.957
9884.96
477382
2353.22
1170.41
519622
144411
2440.11
4306.26
7263.31
2405.43
1659.29
4802.05
3756.76
2401.86
1209.61
5726.72
342904
6305.91
475076
432917
277844
37857.2
1444.58
2111.79
3044.05
465611
8748.48
172.121
598.802
3919.53
85.8176
2266.44
540.938
455826
430091
11453.9
417806
328184
327.426
2266.5
40.1052
59.7507
4361.28
370959
1145.2
18450
346290
171.288
399101
12675.2
171.037
478895
51.5674
2371.32
23283.3
368099
343363
2429.71
340903
2939.32
161.747
6680.12
63.7187
438731
67.7373
264569
8387.12
5967.65
8085.68
4670.11
421862
473274
394.561
484.25
32247.3
621.565
459982
8037.4
81.7838
1052.37
1043.08
467669
140.438
8160.04
4429.1
8586.28
453490
462921
4012.83
437202
1387.32
45782
1284.5
5580.08
2796.21
465919
268398
1165.68
8981.49
7760.72
82.2294
476342
8454.12
419104
3262.19
158.174
469278
458940
408015
12622.5
433751
19806.5
10293.8
42676.6
477969
7691.93
456289
9840.4
6448.99
104503
4288.27
36123.9
4167.95
408500
4458.65
856611
4924.49
460959
8187.88
246705
149.871
574.578
7478.02
466703
5449.26
5600.76
5067.59
2245.9
610391
8640.92
1325.22
8372.42
6581.03
5119.77
4860.38
8342.35
1917.42
467459
46.7234
630.617
51996.9
852.327
578086
11133.6
500722
3869.74
116.033
4040.45
6582.19
10494.4
14797.2
411083
27.8799
849.786
371.539
21749
501148
912.022
419694
2242.97
1019.31
5353.25
131679
19537.6
524.079
1689.83
447671
81.9201
1892.73
2019.67
334.331
4380.81
150.49
187.235
1057.45
51288
690.319
6124.96
6089.16
404119
1732.09
2190.84
179.958
3669.09
438136
9283.63
241731
867713
11018.8
598.097
2416.37
397730
5037.63
370112
322.691
1122.74
407285
13818.8
10882.9
6558.95
1335.44
8095.05
5631.87
190.349
2349.17
3905.73
1960.55
2331.66
1165.91
352.501
963.67
11051.1
371969
1605.63
1595.58
51088.6
1290.28
6099.84
42.4831
39979.4
1260.29
1684.81
23382.8
424143
460218
3217.3
436503
1825.95
23181.2
341442
407851
5620.35
390827
34843.3
6369.45
812363
773.579
2243.66
297.266
561.64
370153
8412.85
6462.86
3570.93
394.667
469178
3185.64
535.489
5039.06
372265
384543
3436.65
3518.85
979.576
391800
454102
1798.22
1430.53
3615.02
334.415
301843
3488.04
19510.9
1947.74
5043.41
436342
410245
466712
12590.5
982.324
4703.25
7025.61
622.882
1828.41
396431
1480.01
2833.89
1531.72
1520.65
7396.3
6239.84
7424.42
2427.43
325.267
478045
381440
1262.31
1439.6
454680
916.274
289412
886.432
401832
1705.86
10042.8
46.7469
3761.36
250.692
1167.25
30.901
466580
1754.71
895.006
353.851
10379.7
3590.33
7997.68
437156
1026.35
4329.72
3181.42
400046
18531.4
143.876
1431.7
6873.14
475905
365518
416.037
3556.78
475717
19176.9
412380
1109.05
3346.17
3978.93
38301.2
89.4625
10705.6
33.1862
25.9911
1245.43
475935
374554
5507.18
474605
2869.52
1050.71
9115.38
317595
291.824
1371.3
1313.34
391.145
448300
473159
3578.82
1706.78
43.9012
1973.06
131.362
466927
1815.95
54625.8
474550
126.027
4699.01
237976
448.577
232639
188.058
9731.7
1657.48
427248
2258.31
559255
312904
2352.45
413250
210.834
1942.59
439704
4273.92
445382
3941.18
374990
432160
15435.8
51.9587
23.534
9827.15
8107.52
632.799
405821
10557.8
4545.54
49528.9
3830.65
50.4189
6175.16
45.6006
101.191
228.462
2499.68
463629
2331.68
460.744
449177
434161
216.152
2103.86
9973.88
1433.44
449985
2818.74
3536.5
1934.7
450625
12931
160.759
170456
530.791
321919
137.84
1370.66
171355
58.9655
1868.1
1191.68
1403.4
577039
21857.4
196.027
288756
447480
564.366
324.307
225874
3167.94
466401
7216.88
437804
2720
347358
6012.3
9769.12
3398.82
41962.8
2406.72
386838
1082.99
463011
3660.09
252137
5710.19
3508.69
479713
43.3222
5926.13
7161.05
503588
17803.3
132.862
4103.66
2406.7
40.6684
8798.1
358147
1815.02
57.1277
424850
3986.56
452950
372.389
441143
3838.19
8285.32
2148.12
659.186
4183.9
474166
638.511
372411
444050
1299.33
6345.37
402255
1166.45
467997
5124.17
5317.62
605.14
325424
10794.7
1468.16
3691.03
6836.82
360126
5913.17
10979.9
442687
9526.74
587.716
3744.65
229297
1340.1
21591.8
290.712
316783
2324.91
2434.59
6349.56
111829
51.1787
1166.29
317951
5346.45
421941
2195.79
213.336
139.542
460047
1342.11
445775
1186.78
1148.47
1059.55
9661.59
1613.75
359602
824211
3755.83
7958.26
3807.2
7323.75
3852.24
553.752
1724.22
465036
50581.1
1003.2
420521
396.219
469199
10006.8
12032.1
445876
455501
422686
580567
126.564
473830
64281.6
175.991
62.7482
3360.62
944.802
316124
848.842
13586.1
6397.35
453046
9084.29
466704
2138.48
29.2487
18841.5
1494.11
8694.41
443397
5943.66
4931.37
3797.4
30.438
402450
396237
6170.7
974.879
825.621
233199
49.081
8594.58
3815.13
3926.44
155.037
18509.2
70.3418
6692.41
5891.28
478271
1754.76
65473.7
463828
388362
445044
8409.14
345165
1061.56
439955
82.3116
8956.47
177.256
3537.98
6184.9
538785
314841
371632
47.5388
2460.61
467794
11809.5
10205.7
1298.81
3060.92
450328
6024.11
56.9483
6009.81
7439.13
445818
7536.34
445176
245056
182.009
604.431
1213.66
428037
226.858
10355.2
463.665
941.736
463673
31.5583
734.854
144.585
2513.37
424.068
383558
997.906
1414.3
3772.62
929.641
475569
320.164
963.905
411652
514.791
430780
2936.8
7280.22
1051.34
1835.41
10401
1861.36
452571
7333.76
379.302
1543.71
953.711
1033.42
372588
26.9524
1147.35
431881
367295
840.804
466402
2177.73
1936.29
447178
3264.31
474848
330.68
3141.15
9203.08
6862.63
1049.24
255379
4938.67
11060.4
44227
12445.9
168.368
5619.28
9428.47
90.8985
2063.16
452.629
660.883
420250
8181.02
3043.05
611.592
2619.53
7356.81
374595
475469
34.8643
427886
6364.19
168.434
547.849
466092
326601
983.818
346609
5825.49
2804.5
2816.01
293.302
2232.27
1219.77
10444.4
2884.85
460.448
1066.29
444740
357857
604.979
212.802
34418.2
2402.27
52530
469500
2757.15
396.014
1435.03
469057
425583
374291
1746.4
287105
2100.81
9926.85
3377.95
5402.83
401331
306.554
454706
1062.38
1150
39.4881
25263.9
135130
8594.27
458738
57.0457
6222.08
74728.8
56296.7
2390.42
18093.2
773.588
463.496
426206
976.318
8274.86
3346.58
96985.3
6239.16
10606.6
4953.94
377101
459282
1499.24
4993.73
1869.65
775.862
6872.05
27734.1
1057.77
1167.6
333.108
10748
827.21
3178.71
39.9932
26.8643
462785
167.494
2169.28
417872
277.679
3364.61
60944.4
360182
3607
818.757
820.153
2192.6
2028.53
26953.8
163139
4968.59
8731.53
460619
1016.23
695.318
131.913
294.93
474423
2049.24
2662
2046.78
467817
377085
6569.37
6656.74
461251
572487
164.774
34.1711
2675.77
4691.73
117.325
313251
4805.12
83.1873
432544
3586
15070
462644
468987
146.602
82091.8
8662.81
405.911
1352.26
2975.83
2152.5
200.157
121935
334705
8916.91
420444
1839.7
5252.21
312585
463.443
7332.64
5744.78
349405
377809
3724.2
65950.9
4866.74
5931.08
5781.11
6617.36
5908.38
4757.32
1975.7
379267
4155.83
1501.68
443.767
368330
386398
139.112
220.499
394832
57191.6
80.5253
416123
708.444
336165
1532.78
4113.88
2699.06
1375.08
927.098
185.509
818813
3197.06
436841
661.862
5010.14
437722
1865.68
164.008
8851.04
6556.62
426085
6201.16
433397
68.2326
1795.22
2176.55
920.352
791.948
1002.49
830.507
173847
1151.24
47.0356
453.593
7039.59
1789.38
266597
426704
1295.96
451085
165503
467705
5739.54
10482.5
417.082
350274
1652.59
42.3142
827.768
1011.12
535.649
32.0223
2227.04
1443.15
4478.47
5851.47
465404
9156
52.1211
2124.72
299622
3905.53
5652.29
546680
9242.7
3931.82
184.324
5199.68
11764.7
640.857
1055.29
631.159
5375.16
438460
5359.19
338599
67771.6
8374.75
1967.78
1189.99
19.5063
109.882
2286.13
452633
45.7903
8908.38
45.4202
2207.95
445885
104897
438381
3107.68
1740.73
9107.18
277747
1488.54
419377
11250.4
1283.85
365.155
890.217
10790
4107.36
1336.78
10762.9
6226.07
1793.14
6294.83
18413.1
365661
353.213
366.558
2425.85
896.991
631.888
8159.77
761.057
618.558
1615.63
848979
4995.67
5282.38
3732.34
365888
426761
443943
2211.68
5566.76
8414.5
398771
643.851
703.925
329.515
3239.98
87.8545
143.565
5135.18
80.3192
8291.38
120.395
441487
40302.4
5700.34
1446.43
1077.75
4225.34
1349.31
464187
2269.3
31126
1032.78
453968
456722
122.982
53.9255
1547.33
46.1809
341.866
3253.31
6422.39
420185
6761.8
459635
4704.11
2121.83
638.181
4636.11
2704.46
538491
451754
9758.47
19531.9
7395.79
7561.1
369901
1053.78
814.336
2026.19
70.8633
543377
1565.27
464736
577.65
142.486
132.602
3572.19
1490.29
4877.24
4834.29
367003
452848
23.2381
112.227
3253
3672.44
651.115
44518.4
4527.51
28264.9
3376.33
24535.6
442573
33700.1
1230.77
292.152
6831.42
7323.93
19079.8
1005.95
6240.33
36912.3
3153.66
55902.5
3708.17
131.389
3926.93
390188
306197
384421
78.4033
438342
288936
10549.6
3425.71
131.63
8657.97
80.2693
441394
1536.11
375.735
845.889
4898.15
1375.86
432549
2983.79
20260.1
459410
4921.41
4100.71
8906.59
3714.27
5067.85
6297.67
1013.93
1010.19
587.588
5724.48
320.481
23.0783
8857.24
278.515
389692
75.1923
3646.76
1402.06
7019.6
4753.82
997.284
44.8872
30.8591
1762.12
402762
9248.16
978.529
473410
1107.45
2657.05
1607.83
4359.86
257090
5923
467885
473485
1015.25
47.2542
599855
912.192
1874.1
10339.9
452720
1212.18
5122
5405.96
3433.93
1171.62
8973.85
6728.58
469497
362845
1128.99
278209
334464
39.2512
3961.06
332859
442641
453895
11054
807.899
474408
6352.77
5683.59
1092.12
320373
422192
282.702
631.738
802.36
1032.87
305946
908.441
858.562
3592.6
456773
16899.1
1435.18
458079
467987
459715
472312
114.224
6242.96
388721
415604
2294.54
6890.12
714.136
1473.05
319512
4521.66
18018
374930
690.198
464572
469091
460630
860449
459.447
485.723
1692.1
2496.22
117337
86984.4
140.078
32.3775
8012.78
3279.46
989.498
14210.4
1416.75
456909
3598.27
1160.25
1405.83
57.5494
6433.17
439216
585.683
547.705
476756
459796
8363.37
1212.57
1408.06
6907.54
675.399
496.115
5127.38
9090.58
436297
484225
464934
4612.14
10891
8517.99
481036
4497.99
4952.04
3065.8
359425
539.221
445338
352138
8522.7
8285.3
290.311
34.486
400328
2641.09
1498.96
753953
1013.87
4380.83
6109.06
466651
2082.5
1132.26
355234
3193.91
43479.7
337.733
381462
6926.18
463337
1767.64
3723.89
10521.3
3339.47
298073
11286
1447.84
4748.04
13807.6
1853.25
447468
14179.5
306218
3341.03
5758.57
354.854
3289.97
29833.1
78.308
5694.58
475123
292402
10058.8
452383
429.638
18489.9
964.758
137427
339.153
4825.75
457531
456699
786.388
2639.54
454046
64.5084
4578.78
2295.15
988.872
3249.12
118.728
644.925
2825.93
400636
3656.04
14663.1
446342
12775.1
69.5401
2701.63
1419.29
2927.03
503416
8690.45
463876
476444
3673.47
1246.7
2470.48
461203
379.58
1484.13
6008.07
1581.21
454994
137.994
5022.25
10070.3
464512
452232
8685.24
435715
153.735
1195.53
456444
335760
4351.56
475268
141.654
33.0381
515.549
35123.6
5214.7
641.65
344244
736.683
477965
163.693
423.95
905.64
132.097
573966
560851
1313.45
357271
1427.1
927.836
455421
938.927
18939.3
2516.71
2430.39
584.034
3675.92
40.5198
376678
1764.86
121.476
11593.2
2294.73
925.101
10952.3
82.0648
447603
1393.1
480010
7758.09
2332.81
442246
452359
395518
3614.58
405250
385030
3491.62
4747.42
772894
443395
53.1838
1289.04
403536
414053
1581.11
455438
417650
465540
451183
256.883
33.3233
5594.15
2203.65
6182.09
24619
397004
7549.81
413064
107.872
160.592
3693.81
339816
434721
4967.46
1088.06
423853
528.078
6612.59
5908.39
508.756
475624
2824.41
448266
30884.3
3236.62
239540
4428.73
6206.23
1437.24
695278
2415.88
163703
1741.22
495.786
10886.1
465906
463777
76.4102
1600.14
303295
3797.8
9467.02
446180
240296
274231
4114.39
57.7477
382459
89086.7
449147
1366.11
467192
313514
928.833
44.458
432.783
18681.4
454841
5833.63
275769
8601.61
571.78
5700.06
34472.1
768.14
6156.52
1510.81
5222.37
9859.16
403937
6587.73
7231.28
444223
1373.86
3665.76
361133
11298.7
5246.8
952.952
1428.59
2828.98
504.239
158.067
3817.21
471101
4899.16
125.541
4761.44
1062.07
5442.71
2505.56
244393
48700.7
2357.82
207.908
59.5291
470024
8625.7
1298.3
1421.43
358258
610.974
446865
452590
50.2111
439164
464274
318.091
849.679
434953
4943.2
1440.06
45.7438
59.5242
39.0977
32.5389
37.3048
49.3906
56.0537
38.3482
45.678
3012.44
21176.4
1229.24
123.85
317186
289.325
764997
964.386
122.514
1970.44
30.8838
391824
207.492
4581.71
530.22
3822.09
6873.24
94.6402
441151
1777.91
2524.3
4906.13
4863.49
55556
2511.11
2991.39
50.1323
5434.62
1466.46
388551
5865.99
16543.9
458639
1415.64
1774.8
1221.42
61.9197
145.497
1205.68
1303.94
404.543
371.799
445029
7328.77
498809
2260.02
284549
461386
1122.87
488704
13159.7
1666.12
51.7399
27836.4
135.064
391570
457750
1019.88
635.45
927.806
817.716
466439
341608
7007.14
1609.29
352253
2877.76
130.684
402817
834.368
7488.49
3764.51
6965.66
11487.6
398651
1787.19
8826.07
2174.36
1148.61
243531
2400.01
444620
470847
402632
427998
1330.98
99.7312
2474.95
442851
10943.7
9287.61
1737.58
769.321
54185.4
40.1583
219.564
2372.2
313890
37346.2
3908.41
359928
669943
3263.14
23874.9
436326
460757
364497
173.589
466752
8824.38
5887.01
318080
460282
602.8
458.134
364.138
19.1676
2400.08
4249.7
512.596
638.103
4947.36
415701
6107.67
9596.19
31611.4
661.654
10661.1
824.422
5148.11
454398
6875.38
6200.63
2087.68
10630.5
2361.02
7282.04
11214.9
392027
681.361
2257.79
641.412
367.733
10331.8
22743.5
398364
339018
619641
1308.71
447824
1023.82
6076.41
426.456
507.982
1528.15
333.822
244084
5828.69
291107
1809.18
3199.87
2744.86
3654.92
451589
7065.77
5539.09
421.045
6007
76408.8
5247.37
338.551
5484.23
5069.81
3154.19
10442.8
457694
1595.92
1787.95
452848
461077
1214.91
3185.63
378265
24120.2
27577.5
449593
368793
192519
66.4619
4667.13
18.9262
422374
187.505
6962.03
6489.73
10711.9
5816.24
128543
2148.16
7465.95
455169
5943.78
362976
4324.24
367832
357033
5496.64
1147.97
656.106
13895.3
149.741
460.857
631.581
446.124
6685.48
26719.8
498.051
535.365
9527.96
3093.49
91.644
11440.7
3787.68
1515.49
293545
436928
4229.15
6521.01
217842
454392
7349.36
291424
3150.3
2493.84
364650
459532
498691
571.056
27894.1
415241
6021.99
336550
281863
3718.64
379.299
552.189
1280.45
5645.85
3092.26
117.87
131.613
466078
462989
2476.33
442774
5247.97
1342.4
43276.8
10991.6
5337.87
458432
3249.97
6416.1
886.369
572.072
476461
1550.93
430924
451566
999.372
171.249
340.647
3225.86
377534
890.78
3225.68
582550
45.6282
414074
1389.84
399293
6210.33
71719.4
23611.7
1676.47
847.408
2244.3
9437.68
455431
5105.61
848.03
12326.3
1524.34
61560.6
1851.3
2688.92
610.547
214.91
458884
394257
3500.63
3228.53
2365.13
2110.13
2785.82
7169.43
339412
164.824
3180.66
303457
1402.12
477164
3015.34
2287.4
6854.61
462034
2450.65
577.601
759.462
80.734
3672.69
2123.47
2384.29
3913.38
595.697
4126.49
339.509
792.012
4775.73
8632.94
866.5
1458.86
5287.01
173.099
160.171
2966.2
627.771
285.636
452316
392.224
1190.17
463110
7742.33
6607.37
443498
465467
3643.7
8238.89
184032
461770
11156.9
452322
489488
3242.2
469720
31.9297
1224.65
39.5196
302.046
3276.85
57765.7
6177.2
2291.65
3945.86
464985
2761.38
75.2635
2023.26
430.633
909.76
46.7562
1708.67
1281.42
161.421
11986.6
91.3433
435384
440068
14802.6
125.322
402990
400009
284940
449954
2076.41
3113.69
7014.22
42003.3
152.261
12752.1
8930.36
55.4344
823.387
1712.15
287.795
1652.61
146.396
2397.2
455189
1124
736.53
599.479
331561
7908.2
2221.21
471129
1576.75
1400.27
171.882
769.086
3368.42
49930.1
1712.98
458337
475385
455643
129.832
113593
106.678
84.6871
1790.42
5459.85
1663.16
1769.72
8152.91
791.228
443151
341.347
4568.46
138.933
477835
589.205
7222.25
115.559
60965.9
1839.68
815.181
458717
473698
50.4748
457307
161.979
782.711
806.429
1901.29
5884.25
962.845
1172.04
453474
612.112
8641.45
48318.7
5065.83
300.107
1254.3
35653.8
1889.48
443861
3432.88
10713.7
428321
799.191
1673.34
1563.45
6278.09
428498
426930
126.403
311447
126.28
470.218
453173
5788.68
7437.58
4926.39
6575.86
535.987
3400.16
397824
93460.5
463.276
4719.95
1623.09
2094.66
100936
1391.38
506790
11941.2
6398.15
1964.44
319.267
49.8323
593.194
70.6931
7372.44
368666
520.977
3999.9
469851
398.87
367856
464422
421961
1382.82
980.5
2070.07
6702.44
330243
5758.23
519.366
1966.41
3816.35
200384
2763.97
3567.06
1379.43
459120
378992
8845.91
2453.04
1792.13
386.709
26.409
66372.6
158.415
27.0167
689.271
3130.67
2047.39
6201.47
59444.8
4880.54
2034.01
3585.55
3392.37
176.399
1672.29
26035.6
7184.27
899.713
215.548
40982.5
5942.99
136.479
7427.35
480005
372073
2690.97
329240
453164
2707.61
57.4841
371818
5379.1
196.619
111.469
253.272
429268
363047
380896
2427.13
887.528
429.313
1386.21
2059.7
169.478
16296.1
15932
250397
433788
4270.65
604.391
48.4883
393077
1527.71
3634.24
120.485
195.201
4008.77
237105
278188
3803.9
4387.22
107619
7200.39
3553.02
453711
126.172
4823.12
375280
465615
5784.57
373318
11042
357203
79.8342
147.059
558.044
1175.17
631.185
460024
979.667
44.3252
1440.65
3262.65
851.998
76.466
5028.84
2247.97
3704.63
1157.49
428315
5985.52
587.354
830.965
7021.46
65.224
431736
135.14
4168.5
33.8721
2715.94
70995.4
39.6889
418049
394959
462857
23.5868
1279.74
289.071
7584.19
1300.61
570.76
2544.95
462762
66.1339
5279.66
3594.25
3816.3
1581.93
2587.79
354444
1181.12
434.218
133.96
3656.97
765.002
2699.12
414.673
144.035
1395.41
2447.7
10930
505.919
464300
11269
511.707
449.516
2001.66
346204
258427
442598
7253.62
196411
986.775
3185.14
332972
1753.77
454735
5043.15
1034.4
3176.82
1416.86
437273
598.183
1787.88
465808
458831
7457.31
455256
125.282
442604
5361.1
216.261
5161.28
10211.5
846.896
182564
473623
871.851
22613.4
1335.89
463664
741.864
850.233
107416
78726.6
304040
299.581
466175
131.125
3712.02
1054.01
40.5943
362.262
357.759
16962.5
2372.1
2996.59
467378
4951.24
420217
281404
249591
12337.6
144196
11156.1
2068.14
69.0195
500.163
1013.29
379947
1686.3
31.8276
174951
464123
13181.2
1704.32
7014.91
1143.31
942.403
2975.95
139.807
1228.16
814.842
463481
4481.77
3970.52
989.459
57.3893
1246.95
103.401
2492.67
435887
45.0634
1420.21
8115.67
392566
430.347
37.4975
124.101
7726.79
11288.3
1366.95
5058.78
914.469
1318.01
267.251
1252.16
17257
10690.5
3658.13
7855.42
2606
448364
6193.45
2034.33
12463.9
98767.4
455702
5423.37
1307.91
2569.32
215.272
1805.77
578756
583.594
2027.54
416063
591.853
639.322
558.624
237124
446760
468152
443403
479940
642.097
334935
3149.83
2746.79
17122.9
124.098
21471.7
72122.7
15534.8
430174
9567.41
330.175
6942.96
1871.81
4408.5
3396.96
452547
3256.04
2504.4
286.838
5411.68
6693.31
966.978
436333
3347.09
326137
1706.47
89.3045
477438
161.125
434226
883.995
830.987
229.477
652.011
1552.33
102.386
4136.71
611.358
6664.39
441.143
449.884
1559.43
1017.42
13.4601
437003
1061.77
1450.59
425897
118.177
723.418
1523.22
1310.09
382020
15503.1
1389.64
10111.9
459610
69447
759.108
2205.99
11762.9
8876.93
45.5296
367.958
492.39
1869.8
1669.59
36025.8
158.376
733.857
2128.45
1484.62
391338
1029.1
270154
1240.88
455000
119.638
5062.98
295584
11189.1
42.9662
380906
423591
1160.52
217264
7028.15
7055.5
458491
2262.07
47266.5
355.047
5036.87
317.543
15.2157
1054.24
5948.51
518.047
484.077
458158
431655
6564.96
4338.86
272492
1273.58
846229
131.974
4955.73
1420.49
417.927
464177
618.764
57145.4
1328.7
2449.62
4734.24
6488.37
348.518
656.962
120.066
6649.25
92.5289
17233.5
463339
455850
962.268
467377
1159.29
7087.14
2038.33
43.8984
1317.66
6960.9
1773.9
525.363
736.765
1236.24
404344
452582
3646.01
124.442
437881
1509.52
7084.25
210.372
4767.18
1758.07
75.558
125.951
112.461
466745
51220.9
6051.25
2961.51
484260
511.397
6194.08
1570.92
871.598
8389.75
480712
1528.19
33.1488
396841
6959.72
682329
149.096
361777
355351
6230.96
2189.17
6671.58
401026
891.293
21642.2
462742
808.396
466531
454830
1240.2
461617
1328.65
422646
2712.61
5169.9
1128.2
1898.25
5307.09
121446
355761
5064.65
540.659
467649
1778.43
610.03
919.951
732.136
464524
1414.77
228251
392925
2497.01
3458.65
2170.49
8408
34.3541
443927
55376.4
1227.81
442997
7448.68
8828.56
182124
1483.68
1468.62
6084.25
372322
436889
2685.42
460307
556.48
4223.1
14470.5
323130
2241.02
2829.41
5114.96
8419.48
1435.42
16121
1692.52
285.182
2141.89
8893.31
440831
394.568
461181
2020.82
485.123
1514.13
55.8984
6027.23
1084.81
2499.79
58597.8
1418.76
1914.87
338101
567.096
569.929
325982
2793.21
3034.23
8052.84
6488.6
464225
473805
1855.11
232538
8831.09
4159.8
122.341
2669.44
7167.07
8015.94
7305.16
32743.6
371.644
805.524
92.1486
89547.2
125.202
285351
1980.98
3978.19
447.473
399353
7937.95
1491.88
308.467
276.952
1770.54
6041.1
23.4407
354447
1127.02
6133.42
519.114
156.009
198991
2607.47
459629
367534
5328.17
122.038
414
2326.21
82.1938
2709.59
419383
6299.47
2644.98
6112.13
446082
123.876
72.5352
467389
2777.27
130.01
30227.4
1597.4
2784.63
108.521
6162.11
390600
8413.33
455585
199.781
460775
6624.3
8384.01
429102
3401.38
463075
6826.68
11071.6
465.901
121.511
1358.98
555.44
5040.38
88430.3
480498
444948
5068.13
111699
69.2624
388265
1188.06
2129.35
4883.46
8294.07
6103.09
3890.24
346.715
2751.8
1378.07
65.5236
125.684
1920.41
1711.73
423.182
9689.54
18749.5
3346.33
4085.29
342865
1765.34
4000.97
2001.74
3129.36
427363
52609
446.466
115.705
8664.37
2976.95
1441.65
437936
10659.9
3509
1354.7
2541.34
469761
454287
1400.07
2602.99
1889.63
1593.41
3509.24
190.684
215.074
463208
193.829
5985.69
297710
5169.02
19477.6
447586
2686.41
382401
8002.05
688.286
276132
26044.1
4240.54
452109
246.746
460344
460537
420148
265.231
475982
4976.86
6042.5
2010.2
1291.72
333.177
522537
480451
2943.95
543.813
2058.61
3325.34
458320
29072.2
7762.94
467871
355156
124.699
7013.04
455748
317073
2219.34
460591
8765
1597.36
1395.87
437814
4281.94
3240.66
466844
1351.98
5451.09
456146
62904.2
5166.07
465836
150.391
433775
158.467
8016.01
15595.9
6069.37
2381.64
797.869
2354.03
2210.39
2954.6
1359.45
264044
3428.77
3067.61
367339
578.334
5143
568.107
6376.84
25226.3
1488.96
77.4521
6227.17
7337.75
545.507
5512.61
2283.07
6610.94
4121.32
56.4728
391.895
156.054
467007
8706.97
15272.8
3548.81
282653
151390
473876
2853.72
4902.52
2224.05
4391.73
6440
10273.4
1829.99
1073.52
357998
195229
438.761
10346.2
840.016
455740
225549
119.872
1780.46
31473.6
6133.31
472425
4253.01
1882.55
357.154
1441.46
474.132
178408
793.618
4817.09
334669
3811.55
10243.2
298833
10311
1826.18
5360.25
5153.72
403014
480942
2333.79
342611
482195
483042
194660
399889
1368.41
232569
1927.11
7635.94
46.6924
1734.01
7862
10419.3
2204.44
610.755
131411
1983.73
2441.05
206.507
308327
127784
2022.73
461999
784.758
430131
474397
525065
527.038
8128.97
63993.5
1299.26
1149.57
3754.01
457250
5872.86
442369
391931
41.5691
61.6824
33.7245
37.7265
60.9292
49.0406
32.7558
40.5314
53.6691
2508.88
164.012
210844
1996.97
187.27
193439
3566.1
5351.15
2630.09
7388.42
19797.5
301096
5093.71
6225.52
185.756
14645.6
237.455
10829
6065.08
8106.52
7066.72
1486.76
4997.04
382011
5953.54
7183.3
10599.4
22094.3
1265.07
7336.59
2810.03
56.5659
874.414
220372
467063
229.963
2369.89
348.308
585.882
544.445
461.558
323.151
319221
379419
250527
369627
10233.3
281649
1920.87
101.644
3245.91
3250.95
3318.3
44.9326
138.558
7895.93
273896
123.594
2959.91
102551
747.661
16581.5
1167.64
3117.23
105.152
10376.7
2486.24
810.278
433078
1536.47
8251.57
5313.44
118.008
494.573
2016.62
312870
466247
442712
1036.63
5479.78
2855.98
1417.86
2183.26
630.934
5746.43
473226
456147
2857.47
1890.03
378152
320130
103.073
467484
362585
700.092
4137.45
460108
379944
5018.69
1474.56
13456
351917
21389.6
5040.32
11926.6
6976.46
6928.46
442853
36246.6
132.874
439114
2173.57
11146.5
1314.64
42352.5
594.549
37.9603
4111.16
5787.78
8701.93
2360.75
457943
127.493
402097
401957
107.445
25228.9
383112
338669
430611
17881.3
662.27
2937.68
3441.84
128.205
745.924
5298.66
31448.3
5725.7
449463
225551
1570.36
1237.76
2883.12
367370
6553.16
152.842
386.357
2222.91
7727.22
348849
3450.69
4311
1815.99
4383.2
186539
1755.91
35.5007
332.953
136.95
453568
402330
1871.99
26038.2
412275
15719.3
417667
2542.26
266842
2095.82
437581
12142.5
8247.11
472630
157695
470521
2036.21
2974.96
3659.83
610.817
607.521
1179.49
5333.66
635.422
3860.1
5575.85
12303.4
5155.49
64358.5
363493
464038
7041.98
456930
469304
462841
3400.92
165.663
39888.1
426567
2881.33
2276.47
723.142
2080.3
956.768
1274.17
3075.03
349009
418410
256464
29560.3
1634.41
1296.28
72.1861
460693
162293
906.775
1452.68
361351
2930.26
46463.5
405723
270.018
972.239
1542.46
1102.86
2722.38
899.677
21678.9
774.425
462840
5181.71
9175.52
463294
6774.84
355257
469351
470925
5932.5
459216
1314.5
112302
417579
196.456
5311.61
405702
132021
161097
7888.15
96455.3
2054.28
5741.52
1061.64
481.049
2324.84
45.0683
7593.02
2034.64
545.267
1531.26
5642.15
1030.27
23503.4
8469.18
2850.58
551.292
362.523
356.926
1034.07
44.7074
173.875
2020.73
764.088
11729.5
45372.6
4656.56
4178.86
142659
2078.12
4354.94
463616
461013
11693.9
320.282
6491.18
5369.76
239471
619.774
7162.13
644.306
7450.51
455.74
5711.64
8378.64
1114.4
6089.04
8695.4
2717.35
66.5051
475015
294541
1895.67
12664.1
5838.61
6604.08
456164
4965.24
378870
9554.96
18305.6
1347.53
2055.42
379.456
482628
6902.99
363041
9335.22
2779.67
417415
8706.37
153.586
462489
2731.13
408644
1046.72
500.694
4968.14
1574.45
419672
373.195
422.577
208426
23386.5
10153.1
145013
15942.1
5748.86
2018.78
5080.83
1627.22
3537.02
3910.62
304715
275824
477561
455260
489.937
1009.95
2081.26
68573.8
58.5641
154627
33.3584
490785
4113.16
681.696
449.847
5662.82
1222.55
20198.5
351822
115083
1395.31
267174
448689
2001.99
6067.42
8442.8
3067.07
24.7466
10692.2
557.61
2716.27
427863
400584
6772.49
123900
552233
11111.7
888.102
75.8136
3424.58
56644.9
245120
1868.38
2925.52
1678.77
2659.59
5866.67
457948
1626.54
410732
12516.5
3282.6
3376.72
540.164
1836.48
41874
689.06
6072.3
408453
9683.99
1596.28
6974.01
290611
380.116
385.827
7913.55
5462.02
957.915
16851.8
19058
720.696
394368
2274.87
553217
586.201
432620
58619.2
10027.1
5103.46
1330.21
407221
4977.69
380956
98.5934
3835.71
4611.94
3777.5
494.538
7195.38
3091.12
2335.21
420590
382214
3185.46
187.078
680.185
965.248
3772.5
397619
146.407
5318.02
404219
6767.22
5454.6
200396
406982
556.934
457776
7284.75
462896
11170.6
540.015
1246.2
7060.17
360485
1225.99
5204.7
7458.76
14306.2
4689.57
2586.39
253086
445212
1661.14
2040.9
3318.42
3941.89
261028
43963.5
381888
1187.61
565.187
7225.67
184654
32359.1
640.692
764567
719.922
5977.16
467654
1378.42
79971.6
187901
7289.7
38.6804
58.963
61.9869
33.9704
43.8704
58.8003
44.7751
41.0909
40.4313
46.1664
38.6855
34.4376
53.8264
32.977
48435
7068.29
9264.23
3436.35
4875.84
1351.54
1227.21
151.677
407950
2269.56
546227
476303
13418.1
389449
1328.56
679.609
6696.28
50875.8
10016
333891
215441
123.491
482077
4733.7
1173.69
306807
5374.34
371314
563.647
193976
770.234
432970
421.542
436986
777.664
482536
1157.96
10447.8
17265.9
419194
2922.62
392164
460297
789.758
2639.56
1482.57
4883.41
2336.18
218230
1271.34
458040
9580.97
8481.99
343829
119.912
445023
294423
395755
8061.47
1902.61
11736.2
6741.89
215315
465861
1287.26
391651
10042.2
463838
339.947
5147.88
9161.72
1016.41
10340.3
3280.07
624.73
901218
10127.4
442722
1266.32
1810.03
7360.64
5448.64
4521.4
168095
459536
379737
6065.07
1132.82
351262
53861.5
5555.07
399.404
391071
27157.8
214472
5061.18
438584
1482.96
41714.7
3155.62
2937.23
469591
206694
372.111
281985
3056.33
1669.44
466903
182268
326419
362358
2705.15
1088.36
454112
5069.38
1333.73
2988.57
5551.09
454374
417.444
345496
392797
16701.4
6272.5
1282.26
9514.75
308354
637326
37680
1508.44
444.336
648722
2879.23
561.713
415057
368071
818.055
313122