/*--------------------------------*- C++ -*----------------------------------*\
  =========                 |
  \\      /  F ield         | OpenFOAM: The Open Source CFD Toolbox
   \\    /   O peration     | Website:  https://openfoam.org
    \\  /    A nd           | Version:  8
     \\/     M anipulation  |
\*---------------------------------------------------------------------------*/
FoamFile
{
    version     2.0;
    format      ascii;
    class       volScalarField;
    location    "3e-05";
    object      rho;
}
// * * * * * * * * * * * * * * * * * * * * * * * * * * * * * * * * * * * * * //

dimensions      [1 -3 0 0 0 0 0];

internalField   nonuniform List<scalar> 
23640
(
0.0015689
0.00196027
4.86363e-05
0.395769
0.00301891
0.0111061
0.00238437
0.00592949
0.00740671
0.012151
0.38356
0.0042298
0.00309242
0.00220932
0.0158624
0.00968812
0.000767933
0.283892
0.340893
0.00922538
0.37298
3.92328e-05
0.371064
0.369435
0.00446866
0.00328115
0.053144
0.0123815
0.000475364
0.00312478
0.00253063
0.436076
0.37348
0.00550561
0.00916634
0.0145759
0.000810832
0.00141423
0.000118649
0.392101
0.00444587
0.00779915
0.00316943
0.000109461
0.390427
0.0670488
0.00156503
0.00268499
0.0122047
0.00594536
0.394011
0.289486
0.0134907
0.000932412
0.395493
0.0079097
0.0138351
0.00272422
0.00135496
0.391488
0.00244905
0.0699842
0.39895
0.298632
0.00151103
0.297137
0.00839193
0.00409945
0.268935
0.00335201
0.398487
0.00542843
0.343799
0.000786294
0.00985905
0.433274
0.00749288
0.0030357
0.343097
0.397679
0.0782756
0.0204009
0.00134144
0.00135843
0.00148835
0.0105802
0.288323
0.385955
0.349866
0.0159614
0.00167892
0.00348834
0.0118031
0.344295
0.284796
0.0047093
0.303567
0.0104592
0.00762085
0.0117182
0.0133234
0.000942555
0.369008
0.000647162
0.00693128
0.00130658
0.400575
0.000715946
0.00451125
0.00720107
0.00219441
0.344386
0.00635604
0.00429841
0.0374797
0.000384418
0.0156909
0.00202651
0.00137684
0.00374984
0.373132
0.385372
0.0116418
0.387165
0.0240852
0.384208
0.407203
0.0235157
0.0111558
0.00380191
0.0182151
0.0135461
0.00324495
0.0338792
0.00067703
0.386067
0.381078
0.00427696
0.382244
0.313288
0.0076046
0.0140057
0.34043
0.383709
0.339767
0.00542876
0.388781
0.392664
0.00170737
0.288086
0.00606692
0.0108467
0.00139857
0.398539
0.0139576
0.00066166
0.00239476
0.00581027
0.00795799
0.0525809
0.0157918
0.0110383
0.0144124
0.00701719
0.000374969
0.000312983
0.401489
0.0464988
0.400347
0.0134061
0.00265522
0.0337275
0.00972132
0.00424449
0.400646
0.400934
0.0038952
0.0401196
0.398016
0.00333971
0.390635
0.00687543
0.00426094
0.00996058
0.000502841
0.168317
0.0229
0.00910971
0.391873
0.0110335
0.0103401
0.385477
0.385651
0.00138508
0.000688719
0.390312
0.00708006
0.0141189
0.00872946
0.0366401
0.363015
7.24195e-05
0.00149281
0.00774083
0.351235
0.00145958
0.00854164
0.371801
0.0274005
0.401447
0.00238156
0.00390433
0.00329622
0.00147741
0.0113037
0.00590403
0.00285031
0.00873277
0.00778617
0.000122081
0.00355674
0.383452
0.36371
0.00431069
0.368264
0.00607451
0.00333603
0.386332
0.000120262
0.0016806
0.00171608
0.000610204
0.00748935
0.00373915
0.00574769
0.0199396
0.398173
0.00594498
0.00170906
0.0739912
0.0144694
0.0347122
0.00447226
0.0081284
0.396654
0.000836179
0.00413573
0.00846572
0.397398
0.37967
0.391153
0.00331659
0.00153576
0.400721
0.00138027
0.39237
4.17897e-05
0.000674497
0.398662
0.399117
0.392556
0.00215979
0.0127019
0.00455986
0.000403167
0.0032178
0.0379841
0.00787948
0.00138075
0.277477
0.00884229
0.000299227
0.372142
0.392082
0.0238688
0.00576378
0.000505304
0.38563
0.299371
0.00411061
0.38507
0.000254814
0.162937
0.386133
0.0104291
0.0700743
0.00740486
0.0151692
0.00216151
0.385298
0.00572169
0.000674143
0.00565342
0.00746822
0.3815
0.00583049
0.00382148
0.000836929
0.00371345
0.00103394
0.048677
0.302318
0.385378
0.00435499
0.378285
0.000337446
0.0151068
0.048445
0.393844
0.341641
0.000645507
0.0210426
0.4007
0.342567
0.361645
0.0355981
0.00869409
4.34552e-05
0.288999
0.0106488
0.00176704
0.00568793
0.0093073
0.0119382
0.000672156
0.0182496
0.39286
0.00582224
0.0026017
0.420274
0.163707
0.0058097
0.0101503
0.0153599
0.0059448
0.00451684
0.0085927
0.00857371
0.00593998
0.0037169
0.00892246
0.323646
0.0135603
0.386307
0.386621
0.274308
0.0568057
0.00427357
0.00574952
0.00765217
0.399338
0.0165098
0.000655215
0.00202657
0.00918184
0.000352347
0.00493344
0.00181288
0.39915
0.384344
0.022034
0.376121
0.3121
0.000925144
0.00568913
0.000161496
0.000238296
0.00958004
0.342916
0.00322774
0.0298258
0.324612
0.000647136
0.362936
0.0238103
0.000654384
0.391915
8.50732e-05
0.00585898
0.0388418
0.341511
0.32207
0.00597027
0.322234
0.00692051
0.000628868
0.0127011
0.000275331
0.39076
0.000264115
0.264552
0.0124882
0.0073308
0.0135956
0.0100774
0.379521
0.385454
0.0012569
0.0015032
0.0495736
0.00121142
0.401666
0.0143119
0.000321725
0.00316116
0.00330481
0.396145
0.000512956
0.0150217
0.00790401
0.0136917
0.397421
0.400583
0.0089017
0.388946
0.0041265
0.0657825
0.00368689
0.011171
0.00718811
0.398856
0.267439
0.00360476
0.0136228
0.0146755
0.000333083
0.386885
0.011704
0.37713
0.00636134
0.000517633
0.389072
0.400963
0.369754
0.0238704
0.387182
0.0316065
0.0159942
0.0595342
0.392052
0.0161031
0.399512
0.0145755
0.0121555
0.128265
0.00818828
0.0544893
0.00923321
0.369359
0.00975533
0.692301
0.00843781
0.400725
0.0127935
0.250906
0.000598167
0.00209182
0.0152142
0.39863
0.0110591
0.0112171
0.0103162
0.00605174
0.493308
0.0153403
0.00367653
0.0144475
0.00816325
0.0108013
0.010389
0.0171218
0.00496292
0.392295
0.000114947
0.00136667
0.0727439
0.00272565
0.46728
0.0204042
0.405841
0.00799682
0.000396545
0.00965088
0.012445
0.0163163
0.0246027
0.37209
9.16911e-05
0.00267971
0.00122743
0.0365427
0.406451
0.00279421
0.37774
0.00559461
0.00325461
0.0111022
0.151208
0.0306279
0.00167715
0.0045725
0.394789
0.000330116
0.00499332
0.00524159
0.0013653
0.00942693
0.000576501
0.000659128
0.00316036
0.0713535
0.0017142
0.0111504
0.0104836
0.366888
0.00496343
0.00592693
0.000646551
0.00822132
0.389356
0.0141011
0.246469
0.701271
0.0154194
0.00214778
0.00641217
0.362606
0.0103088
0.342999
0.00132802
0.00352025
0.369435
0.0243799
0.0140177
0.00896146
0.003802
0.0135205
0.0119581
0.000728374
0.00581763
0.00671664
0.00510751
0.00579765
0.00360787
0.00118227
0.0029829
0.0155569
0.344324
0.00437856
0.00436475
0.0687767
0.00373175
0.00792619
0.000122478
0.0566154
0.00355347
0.00448635
0.0335895
0.380551
0.40061
0.00535461
0.389173
0.00486581
0.0374981
0.321792
0.369593
0.00977871
0.357267
0.0501982
0.0122476
0.656543
0.0025208
0.00559776
0.00105026
0.00190772
0.34234
0.0123045
0.0109099
0.00829379
0.00125052
0.388722
0.00740503
0.00180178
0.010269
0.344104
0.352875
0.00618354
0.00822368
0.00314369
0.357962
0.397614
0.00474171
0.00422919
0.00811267
0.00136571
0.29263
0.00854295
0.033699
0.00501666
0.0106168
0.38831
0.370611
0.398234
0.0223761
0.00286211
0.00868199
0.0138992
0.00150788
0.00517438
0.361674
0.00395724
0.00606621
0.00446976
0.00411045
0.012047
0.0127363
0.010325
0.00597898
0.00109598
0.387901
0.350531
0.00385147
0.00396098
0.397854
0.00285206
0.283296
0.00291267
0.364879
0.00457409
0.014848
0.000185487
0.0077791
0.000503096
0.00335246
0.000111741
0.393849
0.00471544
0.00293506
0.00114469
0.0160943
0.00805501
0.0110084
0.389671
0.00311517
0.00736925
0.00740007
0.363625
0.0321614
0.000574918
0.0042394
0.0132889
0.386947
0.339637
0.00161715
0.00867109
0.39208
0.0302518
0.372987
0.00327566
0.00551967
0.00953468
0.0560515
0.000380041
0.019372
4.22878e-05
2.80935e-05
0.00271559
0.387353
0.34618
0.0103107
0.385843
0.00677134
0.00333953
0.0160571
0.304089
0.000980975
0.0038757
0.00378301
0.00130214
0.39512
0.39069
0.00811292
0.00453132
0.000116619
0.0054918
0.000534153
0.395395
0.00509143
0.0739711
0.385955
0.000458343
0.00790082
0.244156
0.00169645
0.239084
0.000603817
0.0145226
0.00456696
0.383172
0.00607108
0.452034
0.300604
0.00622895
0.373202
0.000779546
0.0049133
0.391356
0.00931174
0.394769
0.00848309
0.346415
0.386393
0.0256932
0.000167813
2.77272e-05
0.0144445
0.0127881
0.00225587
0.368127
0.0144278
0.0102492
0.0701314
0.00869376
0.000173218
0.0134145
4.10722e-05
0.00035119
0.000814165
0.0064645
0.397336
0.00573935
0.00155819
0.395951
0.38774
0.000752887
0.00574404
0.0114609
0.00424075
0.396229
0.00669307
0.00652004
0.00540416
0.396559
0.0220659
0.000626255
0.186668
0.0017655
0.306137
0.000532776
0.00378118
0.188937
0.000237433
0.00492276
0.00339519
0.00395853
0.466445
0.0366803
0.000760793
0.282878
0.396142
0.00191633
0.00133293
0.233994
0.00740272
0.396481
0.0100973
0.389155
0.00704743
0.326589
0.0131569
0.0155004
0.0083906
0.0603836
0.00639907
0.354631
0.0032175
0.40095
0.008281
0.254576
0.00980002
0.00819665
0.388959
5.70673e-05
0.0102681
0.0107118
0.408281
0.0312344
0.000526988
0.00977103
0.00637431
0.000120458
0.0144214
0.334575
0.00481044
0.000196682
0.381545
0.00618085
0.398085
0.00108041
0.392235
0.00858891
0.0150855
0.00544676
0.00220005
0.00927986
0.391849
0.00226987
0.344138
0.393473
0.00362989
0.0113121
0.365688
0.00348504
0.396179
0.00944214
0.0107054
0.00216484
0.306833
0.0159796
0.00435577
0.00830717
0.00843019
0.333227
0.0130316
0.0133361
0.393236
0.0190071
0.0019314
0.00854351
0.236911
0.00375729
0.0365364
0.00100019
0.303622
0.00621078
0.00599058
0.0107656
0.135172
6.47951e-05
0.00337185
0.304556
0.0111281
0.378647
0.0054958
0.000747097
0.000559139
0.398574
0.00375928
0.395032
0.00348314
0.00330419
0.00318075
0.0163036
0.00364682
0.334609
0.666119
0.00777555
0.0159979
0.00852382
0.0147037
0.0084078
0.00157926
0.00453953
0.400953
0.0720432
0.00303884
0.377649
0.00135382
0.387653
0.0149913
0.0213261
0.395056
0.399251
0.379461
0.469215
0.00046082
0.392916
0.0831042
0.000680533
0.000253672
0.00796254
0.00279567
0.303221
0.00268536
0.0229613
0.0124587
0.397853
0.0181872
0.395741
0.00455639
5.06304e-05
0.032571
0.00442108
0.0121962
0.393599
0.012932
0.00756401
0.00669018
7.50758e-05
0.36599
0.360885
0.0114295
0.00301899
0.00262523
0.239195
5.72201e-05
0.0169897
0.00632927
0.00873684
0.000594629
0.0303521
0.000272142
0.0129068
0.0126226
0.392922
0.00470274
0.0885562
0.400238
0.355529
0.393589
0.0119234
0.325025
0.00307531
0.391537
0.000333283
0.0147177
0.000638587
0.00805356
0.0112776
0.436002
0.302227
0.344091
4.17192e-05
0.00638294
0.391882
0.0218518
0.0149669
0.00364376
0.00708558
0.396039
0.00971127
0.000225051
0.0111076
0.0114549
0.394081
0.0144194
0.394533
0.249127
0.000683367
0.00199967
0.00372147
0.382878
0.000814907
0.0142295
0.0017563
0.00278824
0.401225
6.33287e-05
0.00250753
0.000581179
0.00632432
0.00164163
0.35211
0.00239618
0.00422558
0.00642975
0.00302594
0.392133
0.00131913
0.00310279
0.371664
0.00147028
0.384821
0.00689166
0.012032
0.00314028
0.00511359
0.0146134
0.00485102
0.39837
0.00988208
0.00149502
0.00452699
0.00308993
0.00328009
0.344773
7.94281e-05
0.00330622
0.38614
0.340294
0.00209825
0.396635
0.00551586
0.00532879
0.395969
0.00753711
0.391593
0.00135303
0.00728502
0.0144407
0.0129473
0.0025366
0.2569
0.0113356
0.0154836
0.0643296
0.0224026
0.000650826
0.0082476
0.010659
0.000321398
0.00532511
0.00147917
0.00232071
0.378218
0.0144116
0.00591353
0.0021847
0.00682098
0.00883697
0.345688
0.387529
0.000142315
0.383509
0.0137731
0.000500155
0.00200846
0.398153
0.309104
0.00315982
0.325429
0.0127071
0.00616658
0.00722417
0.000983551
0.00565141
0.00355015
0.015735
0.00689718
0.00145334
0.00262171
0.394217
0.330683
0.0021638
0.000786454
0.0511896
0.00580775
0.073183
0.387292
0.00671798
0.00154265
0.0042466
0.389577
0.381803
0.346024
0.00459623
0.281762
0.00536359
0.0105507
0.00835981
0.00991052
0.365052
0.000858569
0.397777
0.00335703
0.0024222
0.00011867
0.0409578
0.155514
0.0120567
0.401045
0.000230447
0.011815
0.093694
0.0746929
0.00590895
0.0316558
0.00249257
0.00175521
0.382466
0.0029445
0.0137619
0.00802967
0.120271
0.00797599
0.0158388
0.0105115
0.347312
0.401295
0.00438702
0.0113788
0.00490504
0.00241153
0.0135232
0.0411853
0.00310825
0.00337589
0.00112907
0.0148567
0.00275359
0.00736089
8.84987e-05
6.24773e-05
0.397737
0.000586439
0.00542999
0.376591
0.000767068
0.00777279
0.0823497
0.335822
0.00779378
0.00260039
0.00260432
0.00552616
0.00524319
0.0423649
0.181575
0.00790295
0.0177117
0.401579
0.00306572
0.00170726
0.000494185
0.000989938
0.38523
0.00530099
0.00693669
0.0053015
0.389531
0.348013
0.0107365
0.0108716
0.400797
0.462686
0.000649414
0.000114051
0.00646121
0.00808064
0.000421669
0.300893
0.00858841
0.000346854
0.386019
0.00738434
0.0251958
0.397866
0.395224
0.000479876
0.105438
0.0152958
0.00138428
0.00378094
0.00594039
0.00583275
0.000725999
0.14299
0.313081
0.0180517
0.378102
0.00515042
0.00994433
0.301516
0.00148324
0.0143809
0.0125364
0.328002
0.348307
0.00902702
0.089473
0.0104513
0.0102628
0.0124931
0.00899294
0.0110926
0.0101003
0.00515409
0.349511
0.00919094
0.00418536
0.00127991
0.341287
0.354115
0.000525663
0.000690948
0.360207
0.0751058
0.000342456
0.375358
0.00222483
0.318847
0.00414195
0.00695381
0.00648701
0.00389422
0.00304148
0.000642768
0.661754
0.00640688
0.388603
0.00223938
0.0106576
0.389139
0.00524523
0.000631943
0.0178714
0.0116515
0.382196
0.0089094
0.386506
0.000280522
0.00509267
0.00544272
0.00295436
0.00194673
0.00320664
0.00263475
0.191275
0.00331826
9.45262e-05
0.00169413
0.012225
0.00473773
0.265939
0.382104
0.00388375
0.396484
0.1825
0.391393
0.0125513
0.0153781
0.0016018
0.328141
0.00440219
3.6597e-05
0.00275743
0.00323768
0.00183308
8.8375e-05
0.00558142
0.00429749
0.0101314
0.00964634
0.400317
0.0124975
0.000163109
0.00543396
0.291877
0.00766532
0.00797792
0.442313
0.013014
0.00929807
0.000715471
0.00966812
0.0224452
0.00215326
0.00227072
0.00206426
0.0108479
0.389422
0.010551
0.320489
0.091014
0.0167042
0.00512214
0.00366277
3.12783e-05
0.000412228
0.00573518
0.398937
0.000107777
0.00996793
4.03571e-05
0.00558063
0.394598
0.128083
0.389629
0.0072238
0.00468454
0.0122086
0.274704
0.00436033
0.376921
0.0152773
0.00368839
0.00118061
0.0027821
0.0128212
0.00909103
0.00400463
0.0157786
0.0117939
0.00474502
0.00940373
0.0324023
0.33926
0.00141891
0.00130541
0.00599854
0.00296033
0.00210265
0.0146875
0.00246016
0.00202899
0.00429556
0.68613
0.0104793
0.00996713
0.00883402
0.339404
0.382073
0.393483
0.00557974
0.0107887
0.0171705
0.362608
0.00226894
0.00238096
0.00110837
0.00793853
0.000303401
0.000579351
0.0114719
0.000337877
0.015414
0.00043869
0.392479
0.0535451
0.0125722
0.00403243
0.00341589
0.00857077
0.00403516
0.400506
0.00568063
0.046856
0.00330297
0.398318
0.39978
0.000495918
0.000213531
0.00427595
0.000118902
0.00112583
0.00783496
0.0136033
0.377464
0.0131142
0.400101
0.00831994
0.005782
0.00211658
0.010462
0.00699511
0.435418
0.398379
0.0132124
0.0319471
0.0150305
0.0106248
0.342945
0.00317245
0.00272873
0.00551511
0.000156732
0.439237
0.00429398
0.397743
0.00190723
0.000564863
0.000473458
0.00806591
0.00439672
0.00990156
0.00922519
0.340214
0.398884
3.26079e-05
0.000370389
0.00755025
0.00763039
0.00218333
0.0642633
0.0098199
0.0423736
0.00819447
0.0400733
0.391921
0.0518225
0.00376836
0.00103025
0.0107235
0.013383
0.0311218
0.00321942
0.0134932
0.0562624
0.00790236
0.075905
0.00810709
0.000437036
0.00617194
0.357047
0.295149
0.353129
0.00030372
0.389511
0.282872
0.0156189
0.00784466
0.000520822
0.0133177
0.000268971
0.392432
0.00448757
0.00131842
0.0028324
0.0109249
0.00389194
0.385965
0.00758377
0.033704
0.400037
0.00851142
0.00653665
0.014066
0.00886996
0.00857151
0.0136763
0.00304365
0.00306751
0.00193286
0.0101734
0.0011485
4.13764e-05
0.0115906
0.00101709
0.356519
0.000317574
0.00724759
0.00396374
0.0139264
0.00727075
0.00208325
0.000130324
0.00010226
0.00471934
0.365565
0.0112207
0.00295366
0.392486
0.0032962
0.00689377
0.00376028
0.0092568
0.258457
0.00731871
0.390821
0.392311
0.00323997
4.39839e-05
0.484792
0.00280265
0.00518725
0.0188912
0.398594
0.00356119
0.0105737
0.0121506
0.00785646
0.00362869
0.012673
0.0141098
0.393893
0.337817
0.00353751
0.274945
0.316766
9.72022e-05
0.00904641
0.316378
0.392025
0.397987
0.0162422
0.00271127
0.392639
0.0108211
0.0111685
0.00343827
0.306023
0.379246
0.00102733
0.00204834
0.00269517
0.00328671
0.295432
0.00299167
0.002625
0.00814664
0.400358
0.0283876
0.00424991
0.398685
0.389291
0.400304
0.390671
0.000386293
0.013613
0.356192
0.37492
0.00610465
0.0141987
0.0024599
0.00398822
0.305572
0.00749731
0.0300022
0.34577
0.0023934
0.396674
0.394723
0.400904
0.695404
0.00156602
0.00182359
0.00453407
0.00654403
0.138355
0.106689
0.000496442
0.000118632
0.0153263
0.007619
0.00301897
0.0240918
0.00420841
0.399376
0.0063543
0.00359675
0.00394155
0.000232163
0.0129152
0.38997
0.00211118
0.00172755
0.392616
0.401464
0.0126591
0.00349618
0.00397158
0.0136888
0.0023194
0.00155231
0.0114519
0.0112073
0.388894
0.39192
0.397828
0.0080346
0.014874
0.0133646
0.394262
0.00694047
0.0102468
0.00723043
0.333713
0.00192236
0.39475
0.329542
0.0155432
0.0134061
0.00107111
3.80324e-05
0.364547
0.00630526
0.00412784
0.609342
0.00324152
0.00818015
0.0119865
0.396163
0.00533245
0.00338176
0.331794
0.00633913
0.063235
0.00137559
0.350735
0.0147907
0.397992
0.00484216
0.00904316
0.0157877
0.00620349
0.289513
0.0152633
0.00388302
0.0100991
0.0256537
0.0051192
0.394693
0.0262428
0.296551
0.00770367
0.0110404
0.00142013
0.0075805
0.047708
0.000332674
0.0111768
0.386874
0.285429
0.0160082
0.398711
0.000949354
0.0299325
0.00294012
0.157986
0.00138109
0.0080272
0.399124
0.399241
0.00251218
0.00659843
0.397446
0.000217517
0.0106529
0.00615195
0.00310852
0.00730207
0.000424077
0.00226699
0.00664942
0.364721
0.00839902
0.0267326
0.394392
0.02402
0.000147451
0.00664715
0.00399634
0.00683387
0.407827
0.0174023
0.401096
0.388375
0.00830061
0.00383017
0.00577925
0.398478
0.00123054
0.0041351
0.0103814
0.00425923
0.397838
0.000517679
0.0106031
0.01511
0.40087
0.398334
0.0153567
0.387974
0.000567744
0.00344814
0.40023
0.31825
0.0102015
0.386849
0.00047869
8.55066e-05
0.0014859
0.0536701
0.0105882
0.00160851
0.322639
0.00230338
0.388722
0.000630903
0.00100546
0.00270752
0.000433171
0.463868
0.453269
0.00373745
0.333604
0.0039982
0.0030127
0.399988
0.00294024
0.0328709
0.00662424
0.00602625
0.00210541
0.00829681
0.000135048
0.347724
0.00473032
0.000457187
0.0222925
0.00574877
0.00282123
0.0155065
0.000333387
0.3947
0.00320743
0.392738
0.0127404
0.00562389
0.392871
0.398552
0.360658
0.00818788
0.367622
0.353111
0.00855646
0.00990743
0.624646
0.393597
9.57946e-05
0.00393157
0.366417
0.373836
0.00433212
0.397972
0.376386
0.400042
0.396903
0.000750333
0.000126377
0.00776718
0.00556426
0.0111975
0.0391619
0.361232
0.0103547
0.372623
0.000442225
0.000523616
0.00638262
0.32061
0.38785
0.0106054
0.00343391
0.380245
0.00189847
0.00988006
0.011953
0.00112989
0.386338
0.00618854
0.396286
0.0490754
0.00732555
0.244824
0.00940709
0.010412
0.00401053
0.561996
0.00597721
0.182585
0.00497532
0.00155879
0.0160931
0.395427
0.39738
0.000322853
0.00462134
0.293472
0.00685151
0.0188887
0.395286
0.245284
0.273996
0.00933844
0.000243419
0.351321
0.112615
0.395859
0.00382106
0.395562
0.299056
0.00283084
4.80512e-05
0.00164628
0.0327152
0.398771
0.0127495
0.272312
0.0130352
0.00202486
0.00971674
0.0534214
0.00259375
0.0112119
0.00416557
0.0110046
0.0132799
0.366431
0.0118206
0.0115814
0.394154
0.00377727
0.00891668
0.33674
0.0215834
0.0106112
0.00292506
0.00400273
0.00711389
0.00169353
0.000611325
0.00796999
0.385907
0.00910565
0.000493724
0.00988682
0.00319209
0.0110845
0.00659576
0.248348
0.0686353
0.00586272
0.000753986
0.00024804
0.386895
0.0147898
0.0036423
0.00399386
0.333774
0.00218086
0.394662
0.397841
0.000202338
0.39009
0.400872
0.0011021
0.0028439
0.388193
0.0105131
0.00404457
0.000188053
0.000244932
6.96292e-05
0.00012887
0.000102865
7.55401e-05
0.000239891
0.000159977
0.000193339
0.00762242
0.0358332
0.00282179
0.000481355
0.303806
0.00100546
0.618261
0.00282501
0.000458468
0.00545419
0.000103144
0.357814
0.000786783
0.0103127
0.00176791
0.00907891
0.0135059
0.000399479
0.392307
0.0047648
0.00668112
0.010314
0.0106249
0.0737427
0.00661012
0.00759775
6.78545e-05
0.0101895
0.00411472
0.356215
0.012314
0.0277246
0.399649
0.00398833
0.00475051
0.00355587
0.000170646
0.000582489
0.00348891
0.00392906
0.00158334
0.00129319
0.394071
0.0100603
0.404446
0.00567895
0.280014
0.401546
0.00317243
0.397016
0.0245898
0.00477074
9.07527e-05
0.0428658
0.000538125
0.35785
0.399089
0.0029436
0.00222155
0.00278828
0.00260479
0.394066
0.320287
0.0134391
0.00464374
0.330274
0.0069007
0.000488284
0.366273
0.00250142
0.013967
0.00896467
0.00922916
0.0213321
0.362241
0.00474524
0.0175998
0.00555354
0.00331944
0.247772
0.00618514
0.39319
0.390623
0.365478
0.382728
0.00380757
0.000327709
0.00652312
0.393009
0.0152459
0.013652
0.0046755
0.00259353
0.0761072
0.000124458
0.000698176
0.0063104
0.301139
0.0563476
0.00737738
0.33523
0.541532
0.0058759
0.0386147
0.38902
0.401471
0.338577
0.00055892
0.393748
0.0158293
0.0120565
0.304452
0.39843
0.0021611
0.00174043
0.00145106
2.57503e-05
0.00638132
0.0100516
0.0012173
0.00211618
0.0074723
0.375316
0.00959175
0.0173041
0.0480572
0.00231994
0.0147002
0.00261152
0.0103275
0.398611
0.0136032
0.00958264
0.00537178
0.0155493
0.00574562
0.0154216
0.0153516
0.357887
0.00225658
0.00567846
0.00226772
0.00130753
0.016462
0.0364337
0.362028
0.319957
0.500804
0.00372517
0.396106
0.00326125
0.0123329
0.00164931
0.00169834
0.00446764
0.00136354
0.247931
0.0105104
0.285133
0.00504024
0.00742918
0.00654439
0.00829308
0.397038
0.0130412
0.0103434
0.00119646
0.00988581
0.0958365
0.00789939
0.00137488
0.0102854
0.010453
0.00794052
0.0156276
0.40078
0.00442679
0.00478193
0.399005
0.39863
0.00373117
0.00733451
0.348739
0.0388012
0.0441868
0.39604
0.341324
0.206922
0.000179777
0.0104678
3.19501e-05
0.378942
0.000707359
0.0127392
0.0134951
0.0208017
0.0127208
0.149961
0.00543944
0.0149975
0.399952
0.0129316
0.337162
0.0101595
0.341419
0.333136
0.00814216
0.00359242
0.00230259
0.0256291
0.000558846
0.00142043
0.00204389
0.00170597
0.0135871
0.0404853
0.00162926
0.0017677
0.0159524
0.00719103
0.000305087
0.0143827
0.00773503
0.00417944
0.287264
0.389475
0.0100117
0.0124086
0.227528
0.399537
0.0142871
0.28444
0.00791492
0.00646115
0.338439
0.398636
0.403498
0.00206369
0.0443393
0.374956
0.0125526
0.318763
0.277523
0.00866047
0.00124265
0.00182059
0.00355863
0.00757046
0.00727786
0.000411993
0.000534377
0.39516
0.397801
0.006009
0.392117
0.0110249
0.00382943
0.0635294
0.0153978
0.0120659
0.398696
0.00750449
0.0127956
0.00277298
0.00206737
0.387379
0.00439827
0.385496
0.398321
0.00321102
0.000655331
0.000987166
0.00750882
0.347824
0.00273437
0.00751398
0.470852
5.70226e-05
0.374154
0.00393315
0.36371
0.00990401
0.0942214
0.0376442
0.00482613
0.00266962
0.00595453
0.0158657
0.399084
0.0104887
0.00266761
0.0222488
0.00442514
0.0843348
0.00487524
0.00680334
0.00144674
0.000772416
0.399894
0.359723
0.00861738
0.00752189
0.00631287
0.00575785
0.00667129
0.0107689
0.320967
0.000600352
0.00757285
0.294256
0.00393345
0.388638
0.0076248
0.0057369
0.0119169
0.399038
0.00628742
0.00208979
0.00246044
0.000284761
0.00828325
0.00523867
0.00635167
0.0094448
0.00189034
0.00883753
0.00120787
0.00253849
0.00824995
0.0136005
0.00271242
0.00433549
0.0102489
0.000598893
0.000598937
0.00753668
0.00200952
0.000991329
0.398515
0.00153202
0.00345105
0.397516
0.0160589
0.01155
0.392465
0.396966
0.00822899
0.0157689
0.198241
0.399057
0.0155082
0.398733
0.398286
0.00750228
0.393372
0.000110392
0.00375811
0.000132395
0.000879193
0.00760562
0.0786536
0.0100791
0.00573825
0.00943615
0.400647
0.00654265
0.0003091
0.00524315
0.00164415
0.00299122
6.44222e-05
0.00461285
0.00356603
0.000601836
0.0207894
0.000383743
0.388238
0.390696
0.0227807
0.000493769
0.366258
0.3637
0.279898
0.397428
0.0056807
0.00714451
0.0126857
0.0614403
0.000609599
0.0239643
0.0151204
8.36688e-05
0.00252344
0.00459094
0.00101888
0.00446751
0.000573731
0.00640042
0.398279
0.00353289
0.00251299
0.00214764
0.313686
0.0138147
0.00598983
0.385528
0.00459306
0.00394332
0.000655
0.00260569
0.00645131
0.0692826
0.00459586
0.398904
0.39194
0.398423
0.000495174
0.135163
0.000372891
0.000296446
0.00487607
0.00991264
0.00447687
0.00496654
0.0122963
0.0025773
0.393397
0.00100898
0.0100053
0.000527082
0.392078
0.00212045
0.0137729
0.000426982
0.0838017
0.00517562
0.002727
0.399151
0.390969
4.96471e-05
0.398574
0.000618504
0.00264684
0.0025729
0.00524486
0.0105139
0.00310484
0.00330235
0.398304
0.00218651
0.0152559
0.0660268
0.0103271
0.000696011
0.00382242
0.0507442
0.00528374
0.392689
0.00788376
0.015696
0.383756
0.00255969
0.00463021
0.00432501
0.0132019
0.38393
0.382025
0.000477133
0.300688
0.000434163
0.00177613
0.399177
0.0127855
0.0139611
0.00887028
0.0114968
0.00192852
0.00809447
0.362087
0.115087
0.0015626
0.00819885
0.00444383
0.00569432
0.122256
0.0039361
0.410058
0.0229354
0.00888176
0.00502539
0.00112903
5.684e-05
0.0020392
0.000237516
0.0114306
0.341269
0.00191136
0.00958787
0.38754
0.0013713
0.340935
0.396158
0.378995
0.00391261
0.00313858
0.00530654
0.0111543
0.314546
0.00926675
0.00172199
0.00511972
0.00776632
0.212372
0.00669283
0.00809342
0.00390898
0.399202
0.348954
0.0132918
0.00599608
0.00507163
0.00121396
4.72549e-05
0.089526
0.000595633
3.71318e-05
0.00225192
0.00632251
0.00479399
0.0131092
0.082272
0.0105698
0.00558134
0.00650558
0.0076919
0.000611427
0.00450463
0.0406774
0.0139266
0.00294084
0.000793253
0.0609428
0.0108372
0.00053156
0.0124938
0.393509
0.344488
0.00636381
0.313369
0.398001
0.00704181
0.000223011
0.343539
0.00797479
0.000731644
0.000401927
0.000887157
0.384457
0.338142
0.350722
0.00587854
0.00276838
0.00142385
0.00413237
0.00531657
0.000591392
0.0292063
0.0274578
0.253252
0.386537
0.00941145
0.00200069
5.54834e-05
0.359342
0.0044855
0.00821027
0.000425292
0.000708841
0.0086952
0.242782
0.274754
0.00810494
0.00913304
0.129237
0.0131802
0.00613344
0.397746
0.000435359
0.00842127
0.3462
0.396988
0.0108558
0.344597
0.0154726
0.333643
0.00033978
0.000539808
0.00191066
0.00365358
0.00223377
0.4
0.00315687
7.89665e-05
0.00404225
0.00773821
0.00284291
0.000320018
0.0103974
0.00606162
0.00887352
0.0027812
0.383826
0.00946025
0.00196425
0.00277545
0.0116574
0.000216273
0.385224
0.000535262
0.00967962
5.70345e-05
0.00649435
0.091896
0.000151756
0.376148
0.36018
0.397566
7.64106e-05
0.00364434
0.00104353
0.00972957
0.00384881
0.00200173
0.00619076
0.397644
0.00028321
0.0108907
0.00788047
0.0086681
0.00432808
0.00563934
0.331734
0.00366518
0.00147117
0.00052396
0.00889544
0.00229457
0.0061141
0.00138204
0.00047996
0.0039216
0.00647953
0.0155891
0.00184107
0.396371
0.0149507
0.00121713
0.00140969
0.00516233
0.325688
0.259673
0.392068
0.0142275
0.208878
0.00284706
0.00737481
0.316093
0.00476864
0.397916
0.00809762
0.00313209
0.00580193
0.00421849
0.389668
0.00215128
0.00507372
0.395142
0.398605
0.0133527
0.399084
0.000513598
0.392061
0.0107951
0.000648086
0.00924688
0.0179014
0.00259046
0.198206
0.39298
0.0028987
0.0377378
0.0040004
0.397843
0.00241452
0.0026737
0.129512
0.101655
0.295368
0.000607776
0.395853
0.000522021
0.00866067
0.00316118
0.000133756
0.00121654
0.00120828
0.0279722
0.00631992
0.00722602
0.394701
0.0103306
0.377679
0.278405
0.253015
0.0232372
0.164607
0.0196933
0.00520877
0.000232415
0.00172802
0.00323829
0.349928
0.00455667
6.3962e-05
0.192239
0.400633
0.0246572
0.00459577
0.0129909
0.00356877
0.00289879
0.00707472
0.000556565
0.00365858
0.00272559
0.399668
0.00979483
0.00943579
0.00313414
0.000116746
0.0038272
0.000374096
0.00599002
0.388496
0.000187012
0.00397822
0.0135022
0.359027
0.00164681
0.00015082
0.000499753
0.0160992
0.0209855
0.00388629
0.0101915
0.00281514
0.00378884
0.000934605
0.00359653
0.0257158
0.0159309
0.00825807
0.0152353
0.00673488
0.395068
0.0125753
0.00521801
0.0223487
0.122873
0.398746
0.0113044
0.00376951
0.00662991
0.000751433
0.00413591
0.467742
0.00210615
0.00558051
0.375608
0.00210896
0.00214889
0.00202709
0.242609
0.395004
0.395679
0.392422
0.388666
0.00198961
0.317772
0.00735916
0.00651828
0.0265011
0.000499325
0.0346412
0.0928613
0.0280007
0.384918
0.014368
0.00101894
0.0117569
0.00492164
0.00921667
0.00780895
0.397514
0.00636307
0.00657556
0.00102559
0.0116131
0.013102
0.00308368
0.388909
0.00793822
0.309718
0.0045749
0.000302074
0.387982
0.000589034
0.387786
0.00219203
0.0027948
0.000832793
0.00207986
0.00425661
0.000423388
0.00984995
0.00205185
0.0118124
0.00146423
0.00156814
0.00431532
0.00323339
2.17738e-05
0.389307
0.00338014
0.00405595
0.38177
0.000451771
0.00248875
0.00422788
0.00377276
0.351431
0.0256565
0.0038358
0.0164659
0.401352
0.0877877
0.00200121
0.00594954
0.0225495
0.0151142
0.000111095
0.0014684
0.00134932
0.00515221
0.00442965
0.0520794
0.000330436
0.00251764
0.00524302
0.00325411
0.357508
0.00311753
0.268571
0.00368108
0.398031
0.000392273
0.0105426
0.288351
0.0149737
0.000113494
0.350377
0.379757
0.00335864
0.226877
0.012952
0.0131497
0.398613
0.0060777
0.0654448
0.00105359
0.0101266
0.000764079
1.93858e-05
0.00317373
0.0105871
0.00191249
0.0018165
0.398521
0.385153
0.0104718
0.0101545
0.270322
0.00387224
0.683907
0.000494158
0.009152
0.00413802
0.00130846
0.399434
0.00163225
0.0755829
0.00378014
0.00608559
0.00931309
0.0127478
0.00140881
0.00230109
0.000470187
0.0125565
0.000325435
0.0292419
0.397518
0.399421
0.00221224
0.395175
0.00326192
0.012359
0.0056051
3.86646e-05
0.00396582
0.012745
0.00474301
0.00189505
0.00252097
0.00360868
0.367153
0.398828
0.00798591
0.000498276
0.389054
0.0044408
0.013866
0.000644276
0.0109676
0.00464925
0.000309161
0.000491341
0.000416047
0.394222
0.06957
0.0133229
0.00646029
0.393678
0.00124534
0.00882707
0.00454568
0.00257785
0.0157164
0.389155
0.00413952
0.000122613
0.361509
0.012958
0.551523
0.000568408
0.336625
0.332588
0.0100299
0.00547834
0.0111197
0.364411
0.00273661
0.036317
0.397692
0.00244389
0.395659
0.399657
0.00355299
0.401457
0.00377625
0.380016
0.00649078
0.0102119
0.00324074
0.00500063
0.011024
0.141804
0.332822
0.0107908
0.00181897
0.394376
0.00475863
0.00165339
0.00299387
0.00223674
0.396384
0.00393987
0.235632
0.358859
0.00611394
0.0074315
0.00549979
0.0152565
8.03957e-05
0.392793
0.0777646
0.00340881
0.393202
0.0134965
0.016528
0.197581
0.00412179
0.00407681
0.00828426
0.344613
0.389145
0.00698152