/*--------------------------------*- C++ -*----------------------------------*\
  =========                 |
  \\      /  F ield         | OpenFOAM: The Open Source CFD Toolbox
   \\    /   O peration     | Website:  https://openfoam.org
    \\  /    A nd           | Version:  8
     \\/     M anipulation  |
\*---------------------------------------------------------------------------*/
FoamFile
{
    version     2.0;
    format      ascii;
    class       volScalarField;
    location    "3e-05";
    object      T;
}
// * * * * * * * * * * * * * * * * * * * * * * * * * * * * * * * * * * * * * //

dimensions      [0 0 0 1 0 0 0];

internalField   nonuniform List<scalar> 
23640
(
82.5625
66.6833
242.767
285.073
77.9924
148.292
69.6508
105.007
107.627
125
271.253
81.544
80.0332
70.7457
161.135
147.385
76.4272
247.214
261.86
101.167
268.35
164.686
267.993
267.397
88.5701
76.2592
156.867
108.579
66.8177
84.9415
75.4897
299.867
268.422
87.9478
103.895
156.382
77.2336
71.3909
109.029
272.6
83.0271
108.564
80.2791
98.7466
290.619
172.697
79.2852
72.6994
124.501
109.611
299.526
249.34
150.547
67.2719
285.258
163.153
128.063
76.1442
59.2309
291.955
74.6738
169.754
276.944
251.617
61.2277
251.297
147.772
86.3487
242.556
81.6995
274.888
87.6478
261.571
68.5381
147.963
299.767
199.527
79.27
262.261
276.203
180.579
128.969
59.3494
59.5493
61.0073
147.875
248.911
271.201
263.205
162.093
63.1485
83.3126
119.598
262.048
248.209
90.2739
252.918
162.062
106.776
123.022
118.796
67.4757
267.521
62.3323
96.3375
71.5815
281.45
62.6878
82.5525
103.515
72.5692
261.764
91.1003
82.2636
161.098
57.6583
161.354
71.8198
82.7479
88.4038
268.757
297.872
168.011
298.782
129.769
270.696
299.64
140.129
145.263
79.4963
120.587
116.321
81.0834
140.348
61.6328
271.238
270.304
87.5721
270.936
255.261
104.966
131.246
260.849
271.329
260.816
94.9631
272.45
272.824
63.3653
248.632
113.082
164.109
60.1212
279.636
113.7
64.3258
69.7202
88.4054
140.786
155.382
171.601
139.552
155.788
139.032
59.033
57.0496
277.738
159.787
281.719
115.651
72.4416
157.893
144.01
81.1511
278.513
278.504
79.9903
161.056
276.382
84.1562
290.428
146.181
87.4461
102.223
68.8203
214.843
127.321
108.623
292.135
104.809
113
271.522
297.32
59.9208
67.6813
272.113
96.9761
151.14
131.867
148.537
266.716
78.1294
74.117
108.3
264.057
60.6278
132.139
268.069
148.174
277.964
72.6737
85.083
87.2846
60.8886
169.529
98.2103
74.4548
100.254
125.781
81.6274
88.0373
271.142
266.815
82.0249
267.183
89.9718
76.2288
298.436
83.3618
63.0648
82.1262
64.7922
96.2581
84.08
88.1923
128.228
274.761
98.0333
63.3522
182.886
121.007
167.898
83.2465
108.432
283.886
67.5519
105.926
145.99
276.773
269.684
292.442
76.5127
78.5599
278.656
59.5363
272.75
202.236
64.9614
283.467
282.952
288.653
73.5166
115.851
82.7967
71.9229
80.2278
144.399
109.995
59.5693
246.001
107.86
62.2197
268.843
291.928
139.201
88.7366
69.5937
297.944
252.001
80.3482
270.873
71.702
212.898
271.982
121.194
171.536
116.302
158.138
67.5278
271.818
96.6165
69.2907
96.8226
129.591
270.754
97.4875
79.4067
68.6844
79.105
85.851
162.749
252.575
298.321
88.2635
269.716
59.8461
119.366
157.056
287.183
261.114
64.3163
134.139
278.565
261.903
266.336
142.562
106.419
261.676
249.289
137.869
98.4408
88.462
104.167
107.596
61.3055
131.326
294.617
97.9946
109.071
299.768
213.876
101.832
102.861
114.65
98.1037
89.0674
135.496
106.237
98.0377
78.903
155.615
256.881
112.748
298.168
271.487
245.58
161.58
81.9561
89.053
96.4489
282.692
128.476
63.6913
71.6393
103.499
59.0522
111.384
72.345
276.881
271.313
126.035
269.326
254.949
85.8092
96.5919
60.2102
60.7934
110.377
262.282
86.0224
149.98
258.646
64.1745
266.614
129.069
63.3706
296.264
146.964
98.1291
145.337
261.33
258.484
98.6711
256.501
102.977
62.36
127.518
56.1102
272.219
62.182
242.47
162.833
197.371
144.195
112.36
269.504
297.694
76.1104
78.106
157.715
124.4
277.655
136.16
61.6328
80.7145
76.525
286.229
66.3794
131.705
135.862
152.047
276.661
280.185
109.297
272.535
81.5128
168.739
84.4703
121.11
94.316
283.22
243.324
78.4027
159.85
128.215
59.8557
298.516
175.132
269.439
124.334
74.087
292.436
277.512
267.543
128.208
271.616
151.936
156.042
173.801
295.587
115.813
276.911
163.689
128.632
197.537
126.975
160.736
109.446
268.147
110.813
299.998
141.502
278.899
155.171
238.394
60.747
66.597
119.171
283.858
119.467
121.059
119.101
89.9788
299.999
136.57
87.3938
140.504
195.461
114.922
113.43
118.132
93.6722
288.909
98.5527
111.875
173.305
75.8169
299.948
132.296
299.137
117.326
70.9449
101.506
128.235
155.942
145.823
267.862
73.7216
76.8869
73.3898
144.301
298.943
79.1364
269.383
97.2039
75.9346
116.906
211.141
154.662
75.7625
89.6023
274.931
60.1665
91.9032
93.4218
59.3717
112.672
63.2906
68.8727
81.1251
174.273
97.6376
133.181
140.824
267.058
84.6093
89.6211
67.4835
108.205
272.83
159.623
237.794
299.999
173.26
67.5169
91.3667
265.94
118.481
261.619
58.9134
77.3282
267.295
137.426
188.234
177.454
85.1615
145.163
114.188
63.3617
97.9033
140.987
93.0677
97.5089
78.351
72.2893
78.3284
172.232
261.921
88.9088
88.632
180.099
83.8306
186.588
84.0987
171.211
85.9899
91.0514
168.781
270.227
278.53
145.678
271.941
90.9835
149.885
257.26
267.551
139.352
265.229
168.291
126.09
299.997
74.4039
97.1788
68.6247
71.3794
262.152
165.771
143.626
104.39
76.5196
292.637
104.304
72.0576
118.973
262.297
264.213
134.75
103.744
75.5489
265.374
276.899
91.9473
82.0105
108.038
59.3686
250.087
98.9929
140.375
94.1338
115.176
272.445
268.383
284.145
136.423
83.2144
131.344
122.553
100.154
85.6734
265.755
90.6779
113.265
83.0857
89.6953
148.856
118.784
174.343
98.4352
71.9559
298.798
263.833
79.4641
88.1187
277.085
77.8926
247.688
73.7878
267.009
90.421
163.99
61.1041
117.232
120.815
84.4169
67.0485
287.228
90.2223
73.9331
74.9483
156.367
108.068
176.146
272
79.8808
142.451
104.235
266.739
139.702
60.6756
81.8801
125.399
298.194
260.93
62.3752
99.4519
294.174
153.695
268.062
82.0888
146.982
101.179
165.674
57.0743
133.988
190.271
224.31
111.195
297.901
262.327
129.501
298.23
102.746
76.2833
137.638
253.223
72.1263
85.7854
84.1723
72.8302
275.087
293.633
106.953
91.3233
91.2721
87.1074
59.6259
286.318
86.4755
179.046
298.109
66.6658
144.2
236.318
64.1099
235.918
75.5121
162.47
87.9935
270.343
90.1877
299.964
252.375
91.5663
268.472
65.5737
95.86
272.407
111.282
273.539
112.643
262.454
271.172
145.661
75.0694
205.788
164.951
153.714
68.0114
267.281
177.42
107.529
171.228
106.83
70.5719
111.61
269.186
69.8604
68.0349
93.7518
282.906
98.4998
71.6919
275.047
271.482
69.6081
88.8035
210.997
81.9534
275.348
102.108
131.508
86.7992
275.51
142.083
62.2376
221.397
72.8931
254.953
62.728
87.8888
219.892
60.2126
92.0072
85.0995
85.9563
299.94
144.476
62.4712
247.492
273.875
71.4036
58.9901
234.041
103.756
285.211
173.291
272.764
93.5769
257.873
110.795
152.807
98.2122
168.491
91.1881
264.473
81.6082
279.983
107.161
240.131
141.271
103.786
299.025
184.058
139.93
162.086
299.052
138.197
61.1265
101.827
91.5418
81.8561
147.915
259.536
91.48
70.4227
269.973
156.38
275.87
83.568
272.687
108.347
133.162
95.6201
72.6449
109.312
293.388
68.202
262.374
273.619
86.7873
136.002
266.698
81.1503
286.406
131.578
120.433
67.7734
257.145
163.786
81.722
107.727
196.629
262.026
110.015
199.619
272.944
121.523
73.7779
106.269
234.662
86.4753
143.282
70.4709
252.964
90.759
98.5344
143
200.585
191.504
83.8626
253.119
116.486
270.176
96.8702
69.2337
60.5084
279.848
86.5594
273.598
82.6091
84.2722
80.7645
143.68
107.288
260.564
299.997
117.113
120.61
108.293
120.764
111.087
85.0143
92.0897
281.205
170.226
80.0405
269.979
70.9587
293.456
161.839
136.791
273.644
276.613
270.073
299.993
66.5901
292.384
187.54
62.7005
59.9736
102.329
81.9378
252.772
76.6399
143.459
124.496
276.089
121.103
285.931
113.793
140.064
140.254
81.9377
172.84
273.13
111.434
158.069
137.619
98.2985
266.608
266.205
130.899
78.2923
76.2506
236.376
207.967
122.651
146.146
108.962
63.2148
147.852
62.6682
125.717
113.16
295.119
90.4685
179.258
280.976
264.845
274.151
170.994
257.478
83.6927
272.437
59.8795
147.546
67.2993
106.512
132.968
299.611
252.574
261.861
276.276
93.4656
289.421
131.032
165.326
86.4223
104.739
275.69
150.4
61.3522
131.181
157.457
274.285
126.719
273.576
238.493
64.5758
73.2854
79.0705
271.051
67.4958
176.44
64.0082
81.8896
280.19
120.821
71.0533
60.3176
96.3546
62.6311
264.109
100.972
81.1495
142.259
74.4879
294.043
58.8459
75.3201
268.54
84.8911
271.411
103.319
146.702
81.1718
87.0235
172.566
93.0309
275.442
179.932
61.5131
82.6773
74.8338
76.3869
262.015
82.2724
84.1383
271.174
261.692
97.1553
285.102
95.7239
88.0991
273.81
105.007
294.001
59.2557
104.541
154.516
128.511
100.289
241.018
105.632
173.192
166.689
134.697
62.7228
165.19
214.464
68.5716
93.9362
74.1915
69.0452
269.399
137.634
124.765
67.8736
93.1122
201.844
262.729
297.473
59.3963
270.51
112.032
81.6497
66.1346
283.826
256.178
75.4889
258.235
111.152
110.266
94.5097
72.3016
95.7679
83.3031
160.934
101.41
76.8144
98.6098
273.528
262.378
67.7882
65.6044
163.018
100.287
174.031
293.919
99.5065
62.2405
81.9314
291.919
270.256
262.26
92.1236
247.052
94.9645
228.119
97.9687
132.177
266.549
86.5689
277.154
76.7284
115.111
80.6782
149.552
210.676
172.827
277.334
60.0181
127.682
193.378
182.74
98.0831
138.577
75.2476
64.0247
270.183
80.3916
145.785
101.049
195.512
189.658
162.363
114.266
263.249
277.489
82.8575
106.404
92.4162
78.005
123.208
163.268
82.51
83.8565
71.5308
175.403
72.836
104.701
109.567
104.252
282.107
69.2477
96.8605
269.032
87.7687
104.952
179.433
260.041
112.209
76.3392
76.3539
96.198
93.8028
154.257
217.838
152.431
119.525
278.1
80.3694
98.7448
64.7183
72.2338
298.59
93.7272
93.0434
93.606
291.182
262.709
148.351
148.456
279.025
299.991
61.5171
72.6426
100.407
140.772
67.4606
252.412
135.65
58.1488
271.676
117.741
145.016
281.929
287.705
74.0695
188.769
137.314
71.0947
86.7141
121.457
89.4746
66.8444
206.754
259.2
119.764
269.606
86.6034
128.055
251.355
75.7556
123.624
111.104
258.275
262.99
100.027
178.714
112.901
140.119
112.195
178.407
129.141
114.198
92.939
263.096
109.63
86.9913
84.0632
261.666
264.558
64.1634
77.3734
265.76
184.624
57.0108
268.786
77.2037
255.623
89.7233
143.436
100.878
85.6129
73.9045
69.9746
299.998
120.986
272.55
71.6589
113.977
272.724
86.2388
62.924
120.079
136.436
270.297
168.754
271.869
58.9733
85.4679
96.9576
75.5302
98.6329
75.7982
76.4247
220.364
84.1174
120.644
64.9157
139.614
91.5718
243.054
270.754
80.9042
275.843
219.874
289.727
110.871
165.27
63.131
258.808
91.0175
280.331
72.7837
75.7177
70.8483
87.8524
96.7416
81.4189
107.174
147.073
281.875
177.629
77.4758
94.8017
248.888
123.532
171.777
299.663
172.195
102.525
62.4626
130.396
127.083
72.1599
112.678
74.132
120.137
272.986
123.151
256.155
180.539
121.556
93.1441
78.7707
151.204
64.6277
96.646
275.088
103.009
216.683
272.872
95.9261
273.967
198.564
272.791
104.304
90.0935
180.863
245.14
82.7699
269.764
178.546
84.3933
74.9896
77.5807
204.043
109.542
80.9333
165.383
127.993
91.6234
162.298
137.778
261.322
60.3551
68.0811
98.0503
73.4646
72.8622
134.697
75.0039
73.9146
91.1908
299.999
115.583
128.496
102.436
261.374
270.812
273.547
96.1032
125.102
118.816
266.634
68.8007
71.6811
72.081
98.9537
70.2064
60.0812
108.53
57.6357
130.419
66.5395
272.729
182.491
109.931
86.9685
76.4965
119.529
81.0738
281.005
96.8557
161.06
75.8113
276.328
276.988
60.126
61.23
87.7364
94.1678
73.6232
100.674
114.468
269.895
125.012
278.531
137.084
88.9737
73.1036
107.44
93.7379
299.849
274.939
179.074
148.232
119.3
172.541
261.512
80.5347
72.3558
89.0753
109.621
299.938
88.3813
283.292
73.4332
61.159
67.9045
107.377
82.1813
119.427
127.054
261.545
275.255
172.786
73.4632
104.461
116.691
72.3049
167.96
111.785
161.727
99.8974
148.447
273.79
157.668
79.1872
68.7539
154.456
132.685
148.641
75.7582
112.13
159.068
96.7583
178.563
110.898
72.8907
154.263
264.959
251.53
263.939
62.588
272.849
247.652
163.763
105.878
61.2766
157.622
72.3559
272.705
82.9931
69.0971
72.4085
108.703
85.7114
271.718
95.3923
145.744
278.439
140.19
152.102
153.523
101.527
143.35
111.646
80.7691
79.845
73.7057
136.427
67.6555
135.233
185.277
66.3929
265.014
57.4061
121.996
85.7614
122.209
158.524
116.067
83.508
73.1658
90.5283
267.125
199.832
80.3237
292.444
81.459
93.4486
103.67
114.193
241.172
196.217
290.262
292.622
75.9736
260.481
300
78.9128
87.5963
132.705
275.378
82.5284
117.447
107.872
105.973
78.2831
171.684
115.62
288.992
260.418
77.3786
245.333
256.001
97.9054
106.161
255.085
273.759
276.514
165.008
72.246
292.946
142.338
123.383
77.0121
253.823
269.911
66.7191
74.7764
72.1793
76.1931
251.083
73.6231
79.3
106.92
276.619
144.333
81.876
278.574
291.467
278.438
293.121
71.6918
111.19
264.596
268.764
91.1308
117.654
70.3871
89.5509
253.515
146.225
145.607
262.901
69.918
283.955
288.135
278.575
299.998
71.1326
64.5791
90.4833
92.484
205.623
197.674
68.4119
66.1715
126.758
104.36
79.4668
143.01
81.6216
277.382
137.296
78.2116
86.4763
60.1005
120.768
273.072
67.2618
76.868
294.414
277.683
160.18
84.09
85.9586
122.345
70.6016
77.4879
108.554
196.663
272.007
299.557
283.352
139.177
177.529
154.53
295.816
157.13
117.172
102.804
261.135
68.0084
273.526
259.078
132.944
149.842
65.7143
219.846
266.252
101.557
88.0436
299.995
75.8338
129.845
123.57
285.594
94.6868
81.1771
259.583
122.158
166.709
59.5268
263.695
113.537
282.262
88.5084
99.8406
161.578
130.519
249.623
179.276
90.4028
113.989
130.496
87.7734
274.873
131.003
250.357
105.151
126.462
60.5831
105.226
151.614
57.0713
123.531
297.76
248.377
152.347
275.092
109.725
149.768
79.558
210.904
59.5394
145.758
277.935
277.348
75.8956
96.9881
276.982
71.9041
104.211
90.4541
77.1287
107.882
67.8796
68.9747
103.041
266.33
105.539
132.989
274.391
128.95
114.345
98.5417
86.107
103.846
299.283
121.078
280.404
297.434
107.299
78.9179
103.643
280.619
74.7892
87.0197
140.316
90.0093
277.287
64.6291
114.841
161.588
280.946
275.26
137.125
272.289
65.6524
84.0628
276.508
255.794
103.422
297.87
71.747
93.6797
84.1221
158.671
119.409
96.7172
258.69
77.5435
298.117
62.9069
102.23
81.0986
73.9373
300
300
85.2054
259.655
86.5405
74.67
276.055
77.4247
139.696
92.1144
97.7821
67.2561
107.42
72.7462
262.643
90.4588
64.421
126.089
96.7803
79.5026
171.247
59.6813
274.951
105.306
296.332
147.64
100.571
272.926
275.187
265.889
107.033
267.27
264.37
98.938
116.179
299.996
273.13
134.607
79.4932
267.016
268.538
88.4896
277.464
269.036
282.151
275.612
83.0063
63.9309
174.623
96.021
133.858
152.418
266.465
176.778
268.768
59.1419
74.3603
140.315
256.979
271.754
113.563
76.8233
270.26
67.4411
162.271
119.846
109.17
298.488
110.655
274.256
152.583
107.123
237.222
114.144
144.518
86.8876
299.955
97.9956
217.382
84.8522
77.1144
164.007
285.668
282.965
57.3821
83.9502
250.57
134.393
121.518
273.671
237.524
242.662
106.822
57.5188
263.944
191.799
275.092
86.6829
286.359
254.176
79.5522
224.324
63.7379
138.449
276.546
110.937
245.533
159.99
68.4642
142.229
156.453
71.8029
133.133
87.9358
115.06
180.001
267.271
135.122
151.386
273.253
88.1848
99.6762
260.017
126.923
119.884
78.9891
86.533
96.4168
72.1892
62.6901
116.123
295.979
130.449
61.65
116.765
80.6691
119.05
92.1021
238.594
172.035
97.5084
66.8555
58.1886
294.549
141.404
86.423
86.2907
260.24
67.9241
274.524
275.82
60.166
272.955
280.801
69.9781
72.4386
271.659
114.001
86.3252
58.9767
58.9221
136.141
61.2185
87.9284
158.525
56.6526
58.119
57.2818
95.8199
143.284
105.619
62.3821
253.133
69.7675
299.998
82.7677
64.7899
87.5916
72.5969
265.5
63.9404
107.717
72.7152
102.07
123.387
57.4397
272.641
90.4683
91.6056
115.33
110.983
182.659
92.1058
95.4594
179.13
129.315
86.4093
264.464
115.498
144.678
278.241
86.0581
90.5813
83.2814
87.9758
60.5614
83.7865
80.4633
61.947
69.7069
273.806
176.624
299.023
96.4884
246.382
278.586
85.8155
298.447
129.754
84.6741
138.228
157.446
60.8537
265.301
278.093
84.0045
69.3516
80.6772
76.1131
286.983
258.594
126.415
84.0224
258.589
101.109
64.8904
266.645
80.8725
129.994
101.813
182.991
130.564
266.825
91.3148
121.587
94.9275
83.8951
238.304
94.0792
274.168
292.248
267.102
271.133
84.7527
73.7858
91.9902
273.203
174.037
164.944
90.1045
71.9196
172.618
78.2318
76.2476
91.1431
252.721
160.695
128.448
260.318
299.946
134.645
149.906
271.938
278.258
261.015
75.3014
287.408
135.162
118.387
253.308
280.093
67.6284
63.8213
60.8429
180.475
91.1897
102.507
102.096
73.1086
160.527
268.543
154.386
134.456
159.483
69.1488
175.836
76.5396
120.86
276.387
122.543
156.885
94.2273
165.758
99.6304
114.486
177.121
265.583
73.2076
96.4014
68.577
68.1882
152.168
151.35
266.789
256.898
299.987
85.1778
274.111
76.1147
119.457
62.6907
72.5194
82.9314
59.3576
238.693
134.457
247.534
87.0283
104.429
101.69
106.854
275.767
131.362
129.839
85.3218
147.325
193.305
161.056
59.7023
129.278
117.593
96.3096
162.014
276.885
87.4083
90.6532
275.172
280.436
78.9461
105.306
262.982
150.718
151.318
275.24
261.967
225.578
89.6334
108.1
143.622
270.243
64.2693
132.502
116.595
124.852
110.855
207.826
95.751
120.697
275.927
111.44
261.018
103.197
261.211
259.846
163.677
77.4772
69.0855
131.451
64.9649
78.6641
74.9208
63.4035
119.299
160.017
74.1164
73.4297
144.812
104.301
72.8299
192.861
118.725
87.9152
247.756
271.995
102.418
127.416
232.133
275.743
124.72
248.407
96.5017
93.5813
261.232
279.492
299.654
67.0911
152.529
268.504
116.315
255.983
246.245
104.105
74.0053
73.5372
87.2389
180.816
103.015
69.3652
59.7149
285.967
282.186
99.9165
273.777
115.411
84.9923
165.162
173.073
107.26
278.781
105
121.574
77.4993
67.0906
298.21
85.4948
271.026
274.864
75.4595
63.3575
83.6652
104.161
263.164
78.9847
104.083
299.971
194.007
268.323
85.6754
266.175
152.032
184.551
152.076
84.2222
76.9615
91.3825
144.224
276.687
118.02
77.0759
134.325
83.5189
176.981
92.0683
95.8266
102.319
67.4584
278.22
265.73
98.4919
104.066
90.8361
88.8542
101.245
161.415
256.388
66.5647
101.833
250.035
86.4255
297.683
95.882
96.6705
139.46
280.731
94.5015
67.0126
74.8382
68.7394
107.501
98.2777
91.0124
100.459
76.4037
113.209
68.1492
75.646
140.352
153.898
77.4536
81.5839
125.073
70.077
64.8383
95.4224
75.7424
69.8595
275.187
62.0725
83.6161
282.462
116.892
138.7
273.981
284.293
107.356
126.677
225.077
280.557
174.427
275.04
297.973
104.78
289.511
70.1271
79.0085
72.3724
83.2951
104.46
178.066
148.593
96.8274
101.386
281.389
102.33
59.0357
93.5596
63.5033
73.7409
175.968
89.8087
87.1238
65.0296
139.793
57.712
271.897
273.093
157.544
61.5368
266.77
266.659
246.821
274.499
88.6219
105.666
134.058
165.752
60.5583
129.018
143.198
160.637
79.1119
90.4211
68.4841
89.6884
61.8657
90.8084
277.099
77.1377
71.0608
67.6773
256.27
138.793
89.9094
296.288
83.2322
86.0951
63.6236
71.5621
126.593
174.73
90.3684
278.578
294.073
277.275
63.5703
203.763
69.362
69.2631
89.0254
133.543
90.072
86.3935
160.756
74.4333
273.118
82.0244
110.706
63.9081
295.485
67.3701
127.139
65.6184
176.386
86.1809
72.4766
278.636
293.758
246.497
278.182
63.4961
71.6975
75.993
87.8908
135.693
75.1877
86.0497
276.037
67.8749
137.335
177.429
118.933
104.542
79.5599
170.353
86.7022
274.049
105.574
165.494
270.61
75.6995
87.6223
87.6452
115.298
270.6
270.954
64.2317
251.13
70.5198
64.1881
275.25
109.772
129.165
134.655
138.678
67.3846
101.845
266.385
196.894
71.8822
139.577
88.5556
89.1869
200.174
85.7057
299.649
126.233
174.657
94.7763
68.5616
212.563
70.5289
72.1631
156.377
261.919
66.0856
101.148
293.95
70.5229
261.599
284.233
269.941
85.6898
75.7433
94.5811
145.687
254.554
150.658
73.1262
93.123
119.141
228.768
100.128
106.858
85.559
278.845
263.325
161.357
99.1898
85.6748
77.2342
135.499
179.75
64.4832
176.407
74.2108
120.054
103.546
114.697
175.183
111.952
88.3578
133.629
106.93
69.9491
90.0083
155.183
125.074
74.1758
65.8814
163.044
132.959
62.2507
144.135
295.747
261.868
102.523
254.733
276.059
93.2248
62.496
262.413
163.539
65.1561
67.2413
69.2176
270.714
260.312
263.313
100.105
77.7295
73.104
81.3315
93.9295
69.4813
135.281
140.681
239.721
272.092
110.019
73.2435
211.887
265.216
82.5771
107.321
68.6873
66.7674
111.779
236.785
245.484
113.791
116.467
201.898
132.454
140.451
276.569
70.2658
138.861
262.82
284.368
129.193
262.662
173.028
259.575
56.9668
66.0513
70.8131
77.9851
68.5091
278.837
75.2405
136.094
86.4103
102.226
72.6617
57.9328
117.267
89.9148
101.223
100.905
270.557
153.401
72.4992
72.5903
146.034
73.12
271.728
61.2135
104.412
143.991
101.394
187.311
63.4095
269.462
265.866
282.272
74.8421
85.14
67.1626
188.993
81.9311
69.1319
99.6703
282.159
56.6168
117.538
110.583
106.745
88.6183
111.258
259.052
78.1318
71.5609
61.9879
99.6746
80.8334
107.034
72.7471
72.7602
86.2717
91.5894
169.992
66.6256
284.006
182.749
101.933
77.313
94.0102
257.727
241.291
273.702
123.611
227.984
84.0334
104.715
255.401
89.1678
277.075
150.999
80.0725
132.755
81.433
272.075
67.4168
85.4365
285.814
279.087
135.408
276.581
59.1419
273.711
120.409
80.9052
135.329
138.304
79.2654
223.321
292.208
72.9237
145.284
80.9653
282.567
74.4944
77.1002
201.089
187.768
249.573
119.509
285.526
60.9013
103.918
80.8402
73.584
72.1985
71.7881
147.026
91.0022
100.544
287.098
116.204
269.762
245.066
239.173
128.729
212.391
137.349
96.2666
72.0009
70.1768
75.866
263.254
89.7261
120.646
220.651
280.877
129.611
89.913
130.922
77.6739
78.8225
101.987
60.9035
81.3901
72.4842
281.165
110.939
102.023
76.5438
119.184
78.9945
67.0148
100.894
272.031
58.423
86.5555
145.73
265.104
63.3584
60.28
60.2076
116.366
130.418
85.2801
120.348
78.7588
84.3415
69.3301
84.4122
162.703
162.7
107.402
125.011
93.8156
275.162
119.411
94.5247
135.217
194.888
277.086
116.319
84.1244
93.9594
69.4587
105.858
299.999
67.1819
88.0899
268.568
68.0419
72.1334
66.8153
236.973
274.222
286.863
273.952
299.392
78.2463
255.549
103.774
102.17
156.654
60.2576
150.281
188.307
134.514
270.961
161.447
78.5644
143.18
92.211
115.97
105.47
276.02
124.066
92.3422
67.8101
112.983
123.86
76.0287
272.019
102.229
255.308
90.4369
71.6787
298.357
66.321
271.489
97.7765
72.0897
66.8085
76.0064
88.4199
58.6319
101.824
72.2403
136.789
73.0463
69.558
87.6157
76.2906
149.88
272.159
76.1596
86.7123
270.479
63.4229
70.4755
87.3512
84.1924
263.558
146.505
87.837
148.894
277.648
191.801
91.9689
89.8982
126.476
142.4
99.3639
60.7553
88.4754
87.9896
91.384
167.717
116.207
70.6721
98.4265
110.615
265.398
80.0343
243.884
81.7304
277.156
73.9456
116.436
248.536
181.174
91.7879
263.579
270.44
83.7759
232.182
131.563
130.089
278.875
90.2395
175.109
81.7038
120.594
100.761
190.299
80.5379
136.226
65.675
64.6116
278.737
271.728
151.999
103.597
244.4
79.7432
300
64.752
131.287
83.2291
77.4406
281.753
91.911
183.311
85.2212
97.5948
123.25
123.405
59.9795
69.2209
61.9128
128.391
68.9356
142.889
282.6
276.708
105.462
286.753
86.169
139.033
88.1699
275.274
80.5564
132.421
90.6789
67.2152
70.8585
83.0588
267.014
275.133
110.694
60.5516
272.883
82.4155
123.872
79.1673
105.385
91.6818
59.2552
62.151
65.5374
287.058
178.507
110.122
111.146
298.241
99.5633
170.134
83.7887
81.9764
129.427
299.497
89.5071
65.5485
266.151
130.222
299.958
63.5967
260.57
259.048
150.622
96.8858
145.468
266.815
78.9655
144.484
282.113
80.1996
285.884
275.926
84.6308
278.787
85.306
269.653
101.326
122.746
84.4056
92.036
116.721
207.646
259.165
113.796
72.0658
287.501
90.6117
89.455
74.5009
79.3607
284.133
87.0628
234.86
265.47
99.0216
112.839
95.6847
133.619
103.604
274.017
172.653
87.3291
273.159
133.81
129.509
223.487
87.2737
87.3411
178.067
261.949
272.201
93.2591
279.048
66.1434
102.683
145.011
253.482
97.1648
96.2607
127.923
136.661
87.0211
160.242
89.8489
69.0518
96.1758
134.095
273.209
61.6333
278.688
87.846
64.5787
88.1997
60.8887
162.078
76.5619
99.8641
174.7
86.5466
87.1073
256.864
105.656
66.9033
253.826
111.64
102.904
127.897
161.712
282.175
298.313
92.8264
235.425
143.166
113.434
60.6661
94.4457
161.552
133.023
153.031
155.407
83.3392
76.8351
68.2047
199.302
73.0005
247.443
102.718
141.823
69.4865
266.421
130.971
86.9304
67.6521
67.6399
90.9198
136.873
74.8399
259.244
77.2453
110.955
66.8246
66.2077
228.82
100.765
279.525
261.074
116.404
62.376
83.759
93.6573
59.8245
100.726
269.671
126.577
92.6437
129.083
274.076
60.7449
70.971
288.392
101.086
63.7214
153.612
88.2825
102.446
64.4537
124.22
264.757
141.394
276.019
62.2788
278.238
149.116
153.585
270.897
100.555
282.089
138.92
144.248
104.109
60.0856
81.0113
66.6217
129.167
198.226
297.276
274.263
109.788
203.772
68.9822
264.484
78.373
95.2434
112.903
133.321
162.871
107.115
60.0673
101.841
85.7647
61.3642
59.4222
87.3381
113.556
108.69
142.52
159.863
102.437
107.996
257.104
91.8495
103.489
88.0733
105.067
270.999
179.882
84.3066
62.0633
139.322
98.1738
90.0639
272.818
179.685
98.7346
81.0496
99.2703
289.818
276.904
86.2047
100.601
94.7917
88.6779
101.52
64.2697
69.3912
281.028
85.4534
142.332
248.223
124.542
141.149
274.993
99.5641
263.501
137.978
69.9262
244.473
161.167
133.388
275.862
67.2112
278.173
280.235
269.703
69.642
295.813
115.682
114.107
96.0758
87.5567
111.182
299.752
299.018
97.4825
73.856
96.9921
105.199
277.03
169.975
152.798
288.269
259.252
66.1162
143.316
277.397
252.392
89.6977
279.43
132.512
89.5448
89.2122
272.432
106.375
109.804
288.25
80.788
119.063
277.77
177.692
108.689
286.369
65.9323
272.131
80.9489
138.877
140.091
146.093
97.5373
75.7355
97.9148
90.225
103.607
84.982
243.07
102.344
95.9203
261.729
67.2474
112.731
77.6014
126.54
155.946
91.3682
56.545
151.932
133.832
98.9028
141.99
96.1428
112.719
106.549
61.5139
61.5243
62.3543
285.35
125.026
139.479
136.355
246.777
214.218
293.286
103.759
141.212
96.1557
129.371
126.429
161.669
93.1709
83.8126
259.489
226.285
63.2862
149.637
76.5786
277.588
234.093
71.8749
90.7398
164.792
147.073
292.739
131.605
91.9122
60.4228
81.4942
64.2861
221.679
76.5525
138.923
255.482
132.508
123.325
248.812
166.418
91.7197
124.89
124.025
267.106
296.834
99.025
256.941
296.23
299.568
226.328
266.315
86.8127
235.612
92.7227
138.59
71.2759
90.8867
144.868
124.282
96.8856
68.9634
208.535
93.2598
95.0684
65.9567
250.873
209.949
94.301
281.281
71.7719
271.017
298.374
299.704
73.2705
140.735
194.283
88.9783
77.5357
101.835
277.837
128.772
273.577
265.461
56.8519
57.2164
68.0734
58.7916
57.4279
208.3
58.2965
211.92
56.981
99.5812
119.548
230.374
87.8488
62.7543
227.122
106.472
113.728
100.795
128.871
153.304
248.889
122.249
136.718
85.3885
141.818
68.7197
185.365
146.535
133.501
133.591
87.1743
128.428
263.608
114.784
124.917
159.782
156.38
79.323
131.683
96.5264
61.9267
77.2175
232.851
287.489
81.5662
91.2491
68.5152
71.0861
70.6774
69.2746
66.8861
252.387
263.414
240.166
261.665
175.613
245.516
87.0854
63.9219
104.264
101.616
108.152
58.1206
60.5862
116.387
244.622
66.9582
102.338
204.983
104.387
140.61
78.4261
104.28
64.246
147.878
99.3017
75.9547
271.271
87.5389
145.816
125.014
61.054
73.0707
88.9509
252.065
286.78
273.761
77.576
159.104
98.837
87.1553
96.908
101.44
116.945
297.976
276.999
94.6472
86.2875
263.407
252.783
66.7039
288.207
260.483
71.1239
108.199
279.94
263.229
117.044
89.9003
130.329
258.505
143.46
148.318
127.394
148.395
114.423
273.708
163.681
59.6649
272.405
95.5883
124.575
85.3676
168.891
74.9798
62.4204
112.989
117.58
132.453
98.0774
278.603
66.2287
266.532
266.979
69.942
158.432
263.667
256.154
271.447
145.593
75.1463
102.177
106.846
106.567
73.3515
122.755
158.982
121.317
274.364
234.002
83.7915
79.3112
104.303
261.254
120.412
64.6385
61.3394
97.1286
132.405
258.691
106.67
114.117
87.3179
110.871
225.98
91.6632
146.795
79.9032
71.0051
276.457
267.16
87.972
152.826
268.383
144.411
269.332
99.4587
243.006
94.617
272.788
148.042
141.185
297.922
217.014
289.636
94.6922
97.9973
107.361
67.9589
108.12
81.6548
117.346
68.1463
108.129
120.918
127.255
119.077
187.878
261.022
281.89
148.119
277.996
288.713
282.016
105.593
65.26
176.741
270.801
94.2527
91.4951
82.3111
94.5969
75.141
88.0053
96.2802
258.292
269.173
241.332
152.168
85.1214
79.5335
67.6587
280.301
217.435
110.26
86.5802
261.215
101.761
172.709
267.037
68.816
75.0199
87.9247
77.0307
106.045
78.884
149.352
75.1776
282.381
127.337
121.955
282.35
189.491
259.078
291.767
291.784
135.591
278.574
80.3573
202.138
269.446
64.9069
161.355
267.088
209.029
216.657
131.361
197.086
97.0631
126.102
76.5981
64.9442
96.4578
72.6875
115.774
88.7937
70.3731
83.548
144.741
77.1345
153.409
143.536
94.4917
74.0367
73.6566
73.4719
83.2233
91.1048
64.5905
89.06
75.0816
126.892
171.948
105.142
109.345
211.906
88.5151
102.873
282.698
280.547
136.905
104.371
144.853
117.378
237.258
81.253
116.402
72.5598
161.116
91.5462
184.349
127.736
86.6171
138.75
130.337
105.814
67.3506
296.327
248.805
91.8689
139.405
109.914
138.435
277.583
127.437
263.521
152.012
143.51
84.6776
88.4166
61.1555
296.18
135.003
260.398
120.527
102.347
268.885
186.026
66.3921
281.672
101.878
267.574
84.6198
73.2802
127.944
89.1616
269.679
61.0108
100.416
229.892
145.824
163.652
212.157
134.437
121.3
94.0931
110.046
88.7609
106.28
142.306
250.468
245.223
298.908
276.038
70.3082
79.7163
88.6302
180.468
71.8177
214.929
79.0686
299.497
109.214
74.032
77.5893
147.336
83.8632
147.53
259.194
203.746
82.2762
242.662
275.188
87.6235
154.791
126.915
102.948
75.5022
163.883
71.1245
101.66
270.579
266.904
188.172
205.742
299.915
125.402
74.9216
68.8769
119.217
174.519
238.503
92.0732
103.294
90.2966
95.4787
142.552
277.091
89.1988
268.154
128.585
106.696
102.466
66.259
85.7473
166.905
77.2931
131.035
268.038
146.074
87.8169
123.447
248.025
61.2632
61.3186
116.701
123.607
82.5958
135.942
145.282
75.981
265.54
92.1814
299.922
67.3193
271.828
177.668
173.129
117.08
84.4969
267.24
144.034
263.332
67.7934
110.786
110.538
138.23
71.6747
124.091
103.868
96.5142
269.817
263.492
124.057
65.8014
72.7256
80.7204
108.067
266.288
63.1831
117.035
266.814
134.984
131.004
227.722
267.468
73.1381
278.465
138.333
280.718
137.184
80.2747
83.507
127.134
260.584
79.0414
124.83
161.998
140.175
113.694
99.5442
240.363
273.702
85.0334
96.5444
131.669
144.3
241.395
167.066
263.56
78.4833
66.7212
124.77
223.429
159.002
75.957
299.994
82.2566
138.197
287.848
85.6247
190.603
225.758
115.183
71.9068
57.2692
57.1735
58.7384
242.759
60.0323
148.467
57.227
129.463
59.339
237.734
59.2971
57.1258
67.2256
169.151
124.444
133.119
106.488
108.76
86.4488
85.0417
70.9402
267.743
96.2549
299.897
298.775
150.211
265.461
80.749
69.6453
131.425
171.569