/*--------------------------------*- C++ -*----------------------------------*\
  =========                 |
  \\      /  F ield         | OpenFOAM: The Open Source CFD Toolbox
   \\    /   O peration     | Website:  https://openfoam.org
    \\  /    A nd           | Version:  8
     \\/     M anipulation  |
\*---------------------------------------------------------------------------*/
FoamFile
{
    version     2.0;
    format      ascii;
    class       volVectorField;
    location    "3e-05";
    object      U;
}
// * * * * * * * * * * * * * * * * * * * * * * * * * * * * * * * * * * * * * //

dimensions      [0 1 -1 0 0 0 0];

internalField   nonuniform List<vector> 
23640
(
(-538.46 2490.89 0)
(169.057 2764.89 0)
(394.501 327.575 0)
(-17.5254 130.402 0)
(273.349 2633.47 0)
(-552.693 1985.69 0)
(-134.7 2774.78 0)
(-165.865 2433.83 0)
(-309.459 2584.52 0)
(2290.49 653.356 0)
(-34.2044 432.63 0)
(925.441 2528.72 0)
(269.147 2652.8 0)
(171.602 2723.38 0)
(-1418.48 1442.74 0)
(-434.397 2006.37 0)
(967.33 2454.36 0)
(-113.892 1029.05 0)
(42.4632 727.338 0)
(-1410.36 2149.84 0)
(-85.3764 522.018 0)
(584.661 210.352 0)
(-82.3854 535.266 0)
(144.505 525.455 0)
(-307.411 2620.42 0)
(299.044 2726.96 0)
(-103.262 2124.09 0)
(812.628 2357.75 0)
(1179.77 2415.98 0)
(297.02 2567.76 0)
(146.674 2727.94 0)
(-5.46494 7.96415 0)
(-89.5098 518.161 0)
(-1295.55 2316.55 0)
(-1836.48 1649.98 0)
(-1657.13 1211.09 0)
(946.781 2524.82 0)
(1087.63 2507.48 0)
(1508.28 1003.24 0)
(94.5428 354.34 0)
(1397.44 2277.21 0)
(-290.789 2544.59 0)
(439.271 2637.13 0)
(-1862.93 1332.52 0)
(-10.741 85.8636 0)
(919.482 1688.01 0)
(439.437 2551.64 0)
(761.136 2639.36 0)
(2275.32 644.168 0)
(-166.749 2416.15 0)
(3.19544 22.477 0)
(-65.973 1005.26 0)
(-1836.06 931.087 0)
(-639.472 2657.18 0)
(-15.5002 128.439 0)
(1315.38 293.65 0)
(-785.038 2023.57 0)
(23.9983 2682.97 0)
(24.9172 2842.2 0)
(29.4107 93.6522 0)
(109.524 2725.39 0)
(-580.264 1892.64 0)
(39.6646 245.213 0)
(-60.5628 963.975 0)
(239.399 2842.15 0)
(-65.1288 970.365 0)
(-292.799 2066.12 0)
(-335.053 2629.65 0)
(167.495 1038.61 0)
(428.054 2614.85 0)
(75.1168 278.092 0)
(-1269.72 2318.53 0)
(-145.552 710.544 0)
(-829.274 2576.09 0)
(443.029 2002.45 0)
(-5.86983 12.3088 0)
(-347.414 49.2787 0)
(322.787 2654.24 0)
(42.4597 716.527 0)
(-35.5768 265.184 0)
(847.21 1638.51 0)
(1688.73 1514.08 0)
(35.853 2873.35 0)
(35.5713 2863.4 0)
(225.719 2840.7 0)
(-1978.9 472.487 0)
(-69.83 1013.55 0)
(112.692 389.504 0)
(-174.734 647.842 0)
(-1327.67 1515.62 0)
(-232.702 2814.46 0)
(-137.708 2654.76 0)
(-1955.37 1282.78 0)
(-121.736 705.856 0)
(21.2526 1031.77 0)
(42.7141 2614.46 0)
(-59.0714 937.38 0)
(1811.13 584.965 0)
(-92.5539 2402.01 0)
(-2052.83 1020.72 0)
(1993.63 1120.18 0)
(-639.628 2664.07 0)
(144.494 516.536 0)
(781.844 2626.69 0)
(1983.64 1538.61 0)
(1147.15 2464.64 0)
(43.4435 159.882 0)
(-757.397 2628.48 0)
(-544.718 2638.13 0)
(-63.9265 2482.45 0)
(282.436 2738.72 0)
(-140.268 706.501 0)
(222.105 2627.61 0)
(1427.39 2265.18 0)
(1577.25 1329.3 0)
(-1126.62 2582.19 0)
(-1458.22 1367.4 0)
(-402.552 2752.59 0)
(-619.763 2550.57 0)
(351.808 2531.38 0)
(141.696 475.471 0)
(4.3567 36.1116 0)
(1744.12 701.168 0)
(-1.2768 34.6358 0)
(999.327 2125.58 0)
(113.349 415.947 0)
(4.04882 20.1898 0)
(1802.7 1168.59 0)
(-549.455 2021.86 0)
(1369.84 2328.05 0)
(197.305 2395.61 0)
(1825.76 1477.5 0)
(212.793 2678.44 0)
(-675.692 2159.58 0)
(-793.994 2606.17 0)
(114.142 390.575 0)
(-69.5373 457.412 0)
(-318.478 2608.09 0)
(31.974 443.794 0)
(-64.5114 886.029 0)
(-92.996 2423.23 0)
(-792.467 2010.12 0)
(-153.968 727.299 0)
(-29.5982 430.453 0)
(178.615 721.084 0)
(-121.734 2573 0)
(-50.037 385.316 0)
(87.6644 352.183 0)
(-268.759 2810.38 0)
(203.796 964.545 0)
(-139.173 2394.4 0)
(561.664 1787.07 0)
(17.1416 2864.5 0)
(-11.1133 197.11 0)
(1380.67 2036.35 0)
(-1180.86 2520.63 0)
(-122.661 2793.93 0)
(-523.15 2578.99 0)
(274.146 2115.25 0)
(-77.2623 2120.93 0)
(-1271.83 1466.21 0)
(-2113.68 632.397 0)
(-1634.99 1171.75 0)
(-199.268 2091.38 0)
(1155.07 2588.33 0)
(1254.51 2431.42 0)
(56.4416 209.957 0)
(-1352.51 1438.9 0)
(41.4434 158.411 0)
(1854.29 1481.77 0)
(769.756 2648.92 0)
(1698.47 1268.75 0)
(432.457 2024.37 0)
(-585.867 2639.47 0)
(46.0803 205.41 0)
(-47.8832 203.59 0)
(1373.63 2303.34 0)
(1570.66 1174.51 0)
(-35.9359 260.637 0)
(-23.1118 2636.23 0)
(-8.6965 86.9451 0)
(1333.55 269.747 0)
(-327.005 2611.9 0)
(-897.785 2408.86 0)
(1172.11 2410.77 0)
(241.445 1481.21 0)
(-793.586 2223.56 0)
(-2075.76 1201.03 0)
(-32.2095 100.982 0)
(-879.444 2383.58 0)
(-458.397 2303.5 0)
(56.2743 417.709 0)
(-7.23579 42.2517 0)
(18.5358 2866.07 0)
(879.107 2611.14 0)
(100.993 366.971 0)
(1990.61 1522.02 0)
(-866.079 1879.72 0)
(1560.17 474.959 0)
(1254.03 1738.83 0)
(-9.66003 588.624 0)
(1823.7 1227.32 0)
(1094.28 2492.07 0)
(-269.462 2557.42 0)
(-68.486 662.059 0)
(145.986 2856.25 0)
(1435.03 441.561 0)
(-86.5646 531.188 0)
(1832.61 1096.18 0)
(54.3774 208.746 0)
(192.5 2687.96 0)
(-364.866 2638.71 0)
(-66.669 2566.87 0)
(172.78 2830.88 0)
(588.121 1729.84 0)
(-11.6561 2563.69 0)
(778 2623.33 0)
(-1378.33 2188.14 0)
(-175.157 2243.94 0)
(-2063.66 1633.4 0)
(-151.667 2557.46 0)
(48.2493 432.811 0)
(-15.5929 585.083 0)
(958.475 2515.35 0)
(-142.711 537.571 0)
(150.665 2645.01 0)
(-373.536 2713.37 0)
(4.21977 34.2406 0)
(-2201.28 1650.55 0)
(-232.113 2814.57 0)
(-437.308 2567.61 0)
(-951.241 2629.54 0)
(1431.24 2165.26 0)
(-389.31 2643.65 0)
(-501.421 2592.47 0)
(1668.7 1563.8 0)
(75.295 282.561 0)
(-7.65675 2551.04 0)
(-268.407 2810.48 0)
(999.237 1487.54 0)
(1955.09 1173.7 0)
(-1476.7 1422.45 0)
(1418.83 2262.79 0)
(-271.952 2493.79 0)
(-16.2042 141.637 0)
(689.561 2610.39 0)
(44.6026 2446.57 0)
(1729.16 385.065 0)
(-2.98523 256.822 0)
(124.827 451.313 0)
(28.0904 89.7155 0)
(821.914 2607.52 0)
(441.431 2561.56 0)
(46.612 202.226 0)
(55.6272 2842.69 0)
(93.2505 351.093 0)
(-861.534 512.323 0)
(-860.483 2602.39 0)
(-38.3722 143.119 0)
(-40.3415 147.22 0)
(-17.0819 101.686 0)
(638.422 2666.79 0)
(1926.25 1275.33 0)
(-469.323 2651.9 0)
(1404.52 2306.53 0)
(451.388 2640.37 0)
(503.709 2150.39 0)
(-121.985 2365.01 0)
(55.2203 2842.83 0)
(53.1183 1062.32 0)
(2201.53 926.067 0)
(1458.71 2305.63 0)
(137.134 466.394 0)
(-31.1761 99.7269 0)
(1829.66 1118.77 0)
(-1195.67 2362.91 0)
(1160.4 2386.73 0)
(4.87249 36.1338 0)
(12.264 959.551 0)
(-609.802 2636.3 0)
(113.242 409.243 0)
(1820.46 2040.34 0)
(292.826 1489.63 0)
(-23.4662 407.414 0)
(-390.572 2206.66 0)
(698.833 1835.03 0)
(-66.494 2323.32 0)
(975.558 1678.54 0)
(-582.731 2722.26 0)
(-22.2162 413.389 0)
(-168.812 2579.8 0)
(-960.806 2497.44 0)
(-31.0622 2585.96 0)
(-197.817 2218.44 0)
(32.7873 450.137 0)
(174.297 2521.4 0)
(1309.28 2354.26 0)
(-789.969 2531.63 0)
(298.65 2706.65 0)
(931.751 2449.67 0)
(-1313.54 1444.38 0)
(-63.6 943.807 0)
(3.40672 33.4047 0)
(-196.248 2652.41 0)
(-72.9887 477.299 0)
(1295.9 2436.66 0)
(1770.46 1567.61 0)
(-982.834 1853.36 0)
(-15.4099 112.625 0)
(-158.334 718.397 0)
(837.497 2582.1 0)
(1803.31 1200.41 0)
(-45.946 204.249 0)
(90.0283 718.024 0)
(-33.8115 598.438 0)
(568.524 2137.81 0)
(-2083.98 1212.36 0)
(-527.89 401.15 0)
(21.4348 1011.28 0)
(-424.585 2134.26 0)
(597.238 2408.01 0)
(-1184.19 2378.79 0)
(-1845.73 1616.98 0)
(796.623 2382.75 0)
(-796.885 2624.86 0)
(-1964 1039.22 0)
(33.1626 107.651 0)
(-102.754 2525.15 0)
(420.339 2321.74 0)
(10.5364 14.8208 0)
(-326.749 1453.68 0)
(-184.993 2445.16 0)
(-906.188 2390.64 0)
(-585.443 2346.4 0)
(-218.095 2537.49 0)
(-199.777 2616.29 0)
(1410.16 321.119 0)
(2219.33 995.838 0)
(167.123 2474.9 0)
(297.996 2707.17 0)
(-1700.01 426.263 0)
(-183.018 816.056 0)
(1348.62 2053.1 0)
(-5.31589 38.7112 0)
(80.397 409.642 0)
(-98.6919 1061.56 0)
(-725.612 1920.39 0)
(852.927 2562.68 0)
(228.529 2640.94 0)
(1377.61 2209.26 0)
(-40.2716 149.219 0)
(-2013.24 972.181 0)
(-847.511 2605.37 0)
(-368.107 2738.47 0)
(-1827.54 1635.25 0)
(1217.52 2511.76 0)
(59.5496 2377.34 0)
(-862.711 2561.16 0)
(42.7916 245.085 0)
(44.6519 427.813 0)
(-740.388 2232.34 0)
(-57.2284 495.375 0)
(-70.4787 891.916 0)
(974.132 2393.93 0)
(-29.169 2583.96 0)
(1909.95 2120.61 0)
(1539.18 2324.22 0)
(2229.65 816.999 0)
(23.3408 717.447 0)
(-312.759 2629.87 0)
(-1721.6 1121.83 0)
(205.133 743.986 0)
(840.121 2581.76 0)
(-33.4437 589.784 0)
(990.785 2111.46 0)
(-851.049 2610.06 0)
(27.6905 85.4486 0)
(-1618.75 1383.77 0)
(-103.659 2520.64 0)
(415.978 2173.76 0)
(141.033 720.479 0)
(207.941 755.519 0)
(-13.8613 2572.23 0)
(-175.942 827.584 0)
(-63.8924 2545.86 0)
(-970.507 2611.22 0)
(-2010.39 1015.37 0)
(1353.38 2539.56 0)
(99.6497 368.085 0)
(-1498.46 2199.82 0)
(19.9006 1125.68 0)
(-693.006 1847.07 0)
(-612.151 86.2885 0)
(-1875.66 970.455 0)
(-1616.16 1705.78 0)
(123.223 461.203 0)
(-6.00669 39.4331 0)
(1085.98 2473.06 0)
(450.803 2578.05 0)
(-910.332 1879.44 0)
(-1079.66 2274.09 0)
(60.7822 206.886 0)
(819.66 1976.74 0)
(1373.14 2355.82 0)
(383.577 2644.31 0)
(-306.252 2767.94 0)
(30.6239 123.539 0)
(1137.96 2481.97 0)
(1786.42 1299.35 0)
(296.358 2159.28 0)
(-841.832 1867.84 0)
(-5.70694 259.605 0)
(-43.8829 176.757 0)
(-467.773 2365.36 0)
(-45.5126 383.415 0)
(1324.71 2323.08 0)
(758.415 1820.01 0)
(-98.6457 2657.75 0)
(727.896 2281.93 0)
(1311.74 2242.09 0)
(-38.253 145.331 0)
(29.368 1109.85 0)
(401.878 2701.44 0)
(-833.274 1778.48 0)
(2220.49 787.826 0)
(-1304.4 2420.17 0)
(-3.5036 37.2359 0)
(1721.81 739.882 0)
(-59.9079 489.455 0)
(46.2222 2282.17 0)
(1214.54 2375.08 0)
(13.9641 73.9818 0)
(-57.0971 217.972 0)
(-90.3707 547.636 0)
(-19.3529 2365.09 0)
(77.079 405.848 0)
(-1660.24 1175.65 0)
(1563.12 1393.19 0)
(1188.58 1418.54 0)
(29.7565 94.2151 0)
(-645.66 2342.26 0)
(47.8222 241.444 0)
(1666.77 1086.31 0)
(-2204.8 656.115 0)
(-231.738 1686.05 0)
(-232.109 2232.85 0)
(-824.825 1887.23 0)
(2187.21 932.504 0)
(17.9602 541.281 0)
(2225.37 816.777 0)
(-0.199669 0.53056 0)
(-326.265 2098.87 0)
(44.3976 199.014 0)
(-695.247 1913.51 0)
(-38.761 1153.81 0)
(-931.933 2735.91 0)
(-544.822 2736.51 0)
(1769.16 1566.26 0)
(-38.9419 139.912 0)
(2201.07 860.652 0)
(719.749 2291.45 0)
(-380.033 2211.84 0)
(757.454 2539.27 0)
(0.171586 0.105054 0)
(1761.13 1265.98 0)
(301.09 2536.49 0)
(-1748.92 1205.98 0)
(881.978 192.421 0)
(-2169.58 894.528 0)
(-463.31 2284.5 0)
(138.964 2441.78 0)
(-327.656 2551.65 0)
(-14.8582 99.2299 0)
(1899.81 1808.2 0)
(871.563 2403.18 0)
(-706.525 1800.61 0)
(419.875 2703 0)
(4.65403 4.46694 0)
(1812.26 1184.08 0)
(4.5236 46.2163 0)
(-153.521 2306.83 0)
(-1367.93 2181.55 0)
(-224.141 2564.45 0)
(-2156.58 638.155 0)
(1144.19 1668.54 0)
(1949.44 1064.8 0)
(-119.288 526.509 0)
(1857.75 1438.49 0)
(-136.886 2721.14 0)
(-522.706 2622.15 0)
(360.179 2190.46 0)
(-5.5373 53.7463 0)
(594.557 2626.9 0)
(127.591 459.946 0)
(-135.148 2552.96 0)
(-281.847 2721.5 0)
(-1976.19 1280.51 0)
(-395.679 1473.4 0)
(1783.31 1181.07 0)
(1043.8 2537.09 0)
(150.314 2603.13 0)
(-23.2835 306.447 0)
(-1319.71 2438.96 0)
(-160.785 2594.42 0)
(-54.5596 2594.46 0)
(36.663 2844.21 0)
(-1669.18 1687.84 0)
(937.178 2506.18 0)
(-962.194 2470.6 0)
(459.346 2629.32 0)
(836.462 1720.21 0)
(605.17 2393.51 0)
(-2182.43 630.189 0)
(-2118.83 508.604 0)
(-94.7365 561.785 0)
(-572.401 2602.18 0)
(709.425 2557.34 0)
(947.091 2609.05 0)
(-273.208 2475.27 0)
(-32.0738 376.107 0)
(-841.224 1794.41 0)
(13.7192 1197.13 0)
(-0.0942306 0.248252 0)
(-1383.06 1295.25 0)
(-521.686 2733.29 0)
(269.821 2626.14 0)
(110.766 592.818 0)
(684.048 2341.92 0)
(136.205 713.693 0)
(43.6782 2847.2 0)
(-347.839 2709.77 0)
(-139.852 536.398 0)
(1706 1327.18 0)
(-735.37 1536.28 0)
(-1508.8 346.488 0)
(-122.639 2650.54 0)
(-1875.16 936.34 0)
(1963.59 1247.15 0)
(-766.896 2623.04 0)
(1099.81 2390.46 0)
(-90.0809 2132 0)
(-177.51 2594.16 0)
(-113.197 2531.17 0)
(403.669 2701.36 0)
(501.649 2611.15 0)
(444.096 2670.35 0)
(-1360.34 1338.42 0)
(173.871 691.873 0)
(432.315 2608.41 0)
(428.034 2598.79 0)
(1070.09 1454.52 0)
(-398.615 2650.83 0)
(-1213.12 228.011 0)
(-2109.85 1632.63 0)
(1251.63 1401.56 0)
(-529.262 2575.9 0)
(296.364 2636.48 0)
(-1434 1426.55 0)
(-65.3216 461.574 0)
(43.8443 206.265 0)
(-13.4707 2096.46 0)
(-88.2171 388.186 0)
(-172.224 2600.48 0)
(1271.56 1713.84 0)
(-65.3771 840.31 0)
(-85.2959 548.22 0)
(419.179 2098.87 0)
(68.5386 627.555 0)
(1370.61 1310.79 0)
(2178.57 973.666 0)
(0.429686 0.737662 0)
(255.342 2679.02 0)
(-133.655 2557.41 0)
(-1211.53 2481.76 0)
(-554.133 2713.01 0)
(29.8419 720.503 0)
(1776.26 804.824 0)
(-2054.56 426.093 0)
(2110.23 1213.99 0)
(570.863 2587.8 0)
(11.5352 71.5182 0)
(-15.933 2519.68 0)
(-865.902 2564.14 0)
(718.696 2373.36 0)
(87.1713 708.532 0)
(168.749 625.819 0)
(33.3367 2206.55 0)
(2106.72 1202.51 0)
(339.279 2728.37 0)
(63.5655 623.186 0)
(-16.2448 252.358 0)
(356.631 2635.56 0)
(1420.97 2296.49 0)
(-269.015 2490.59 0)
(36.8818 2844.27 0)
(27.041 995.751 0)
(-1390.48 2200.62 0)
(-752.075 2127.84 0)
(-331.401 2552.2 0)
(-2174.9 860.559 0)
(-41.3826 387.699 0)
(17.637 533.995 0)
(-37.6359 138.575 0)
(1780.44 1287.83 0)
(-246.157 2612.4 0)
(1890.51 412.503 0)
(-1496.03 1769.89 0)
(718.688 2157.67 0)
(-500.864 2631.35 0)
(115.698 598.146 0)
(459.847 2656.27 0)
(-138.798 2392.49 0)
(800.623 2571.15 0)
(92.6223 2620.15 0)
(-603.752 1998.83 0)
(-1540.47 1753.73 0)
(-1644.75 562.16 0)
(-14.0973 2568.42 0)
(541.866 2662.2 0)
(-1.61161 36.4098 0)
(-64.8252 668.781 0)
(1311.21 2352.08 0)
(-592.531 2610.9 0)
(-15.8094 248.154 0)
(-394.651 2676.95 0)
(39.0813 1038.41 0)
(991.296 2562.36 0)
(-38.4916 576.521 0)
(-265.043 2597.54 0)
(1666.76 1124.25 0)
(1861.32 2220.44 0)
(179.641 2347.91 0)
(-1322.8 2106.93 0)
(-32.2304 2635.28 0)
(-2103.07 1781.66 0)
(-17.4227 112.693 0)
(42.7769 2614.16 0)
(1042.21 2539.94 0)
(1047.99 2518.09 0)
(1553.46 1386.68 0)
(-274.161 2502.02 0)
(1618.79 608.573 0)
(-90.0408 382.922 0)
(111.456 2675.31 0)
(1546.33 282.445 0)
(-15.0822 2514.06 0)
(-38.901 585.082 0)
(-859.255 2091.6 0)
(-948.123 2626.62 0)
(857.293 2560.36 0)
(-1885.43 1287.44 0)
(6.4512 38.2048 0)
(183.455 717.347 0)
(-199.808 2823.41 0)
(-1400.57 2178.33 0)
(-33.9552 104.557 0)
(1780.78 1183.09 0)
(-118.015 520.032 0)
(452.682 2615.27 0)
(-22.8835 2029.45 0)
(-206.659 2572.52 0)
(-1055.66 1699.67 0)
(-1145.41 2615.07 0)
(-1942.46 1014.4 0)
(194.946 92.9148 0)
(-164.78 88.3905 0)
(374.745 2310.81 0)
(-8.74397 45.0357 0)
(175.689 679.208 0)
(-431.621 2166.39 0)
(4.55847 35.3767 0)
(42.707 2504.44 0)
(-374.915 2711.18 0)
(-1550.29 1500.76 0)
(-5.76937 934.825 0)
(675.979 2548.24 0)
(-169.724 2650.08 0)
(331.052 2612.56 0)
(-470.813 2625.83 0)
(-22.8865 302.157 0)
(28.3996 86.9481 0)
(-6.15938 2499.58 0)
(285.037 2629.45 0)
(1680.81 1253.63 0)
(-519.26 2594.51 0)
(-945.308 2675.03 0)
(-27.5232 121.795 0)
(-1485.34 2247.95 0)
(911.192 1618.32 0)
(-5.03522 37.7167 0)
(1230.99 2495.99 0)
(1325.51 320.455 0)
(22.0428 1176.07 0)
(43.3209 2788.65 0)
(26.9811 1222.96 0)
(1130.98 2370.8 0)
(911.25 1707.08 0)
(1344.94 2285.11 0)
(112.759 436.549 0)
(149.211 2646.33 0)
(-0.713203 1.23513 0)
(-5.93003 952.417 0)
(1467.93 2177.44 0)
(139.382 491.66 0)
(840.578 2616.98 0)
(-498.155 2603.6 0)
(98.735 357.849 0)
(2007.12 1355.87 0)
(-82.8429 327.763 0)
(1587.03 1877.42 0)
(-120.739 695.002 0)
(109.1 399.739 0)
(1905.15 1045.65 0)
(-1836.31 1759.08 0)
(-495.354 223.02 0)
(-1536.41 1193.17 0)
(752.966 1828.66 0)
(-703.716 2701.6 0)
(-95.1965 554.392 0)
(1583.9 1061.95 0)
(1950.76 1441.37 0)
(-695.942 1829.66 0)
(2198.43 961.418 0)
(2031.36 2050.35 0)
(-1187.11 2176.86 0)
(197.792 337.739 0)
(-1469.08 2261.03 0)
(744.496 2594.58 0)
(-1825.77 1795.8 0)
(-15.568 151.82 0)
(158.395 2573.64 0)
(-1053.65 2501.47 0)
(41.1663 299.014 0)
(-101.1 399.115 0)
(1292.3 2503.69 0)
(229.073 2644.26 0)
(856.394 489.704 0)
(1365.29 2328.55 0)
(37.3734 290.594 0)
(36.7413 2522.95 0)
(-49.6765 2195.85 0)
(-570.857 2587.08 0)
(35.3088 286.517 0)
(-1879.36 947.196 0)
(829.658 2624.05 0)
(237.659 1367.71 0)
(-932.112 2512.57 0)
(226.396 847.325 0)
(992.31 2602.57 0)
(-505.292 2562.25 0)
(141.065 1427.42 0)
(1527.85 2329.63 0)
(-375.436 2562.67 0)
(-562.284 2573.1 0)
(493.441 2633.57 0)
(4.70229 5.29237 0)
(184.605 2214.4 0)
(-694.848 2608.53 0)
(-61.3555 1040.35 0)
(84.6448 311.643 0)
(-556.277 2708.96 0)
(62.8313 2849.22 0)
(-25.1972 1211.38 0)
(-22.4911 2519.22 0)
(-30.204 130.158 0)
(1532.35 482.743 0)
(-27.9388 379.657 0)
(1029.84 2400.14 0)
(134.089 809.993 0)
(-1179.97 2188.75 0)
(991.643 1748.99 0)
(566.354 2526.3 0)
(-1003.8 1701.22 0)
(367.502 2614.99 0)
(166.126 615.575 0)
(441.535 2612.04 0)
(-45.8059 177.592 0)
(24.6581 2493.7 0)
(-2.17759 1168.36 0)
(-1698.3 542.459 0)
(-2111.02 1203.81 0)
(1.21 33.4119 0)
(669.213 518.409 0)
(-1737.27 561.299 0)
(1792.86 603.398 0)
(7.8362 52.9979 0)
(-889.337 2073.53 0)
(950.581 2594.55 0)
(-1024.09 2308.24 0)
(93.4706 2637.49 0)
(2048.55 1949.41 0)
(-1719.8 1165.02 0)
(177.983 755.395 0)
(-214.6 2599.21 0)
(1987.47 2072.34 0)
(114.904 448.826 0)
(-78.1338 1986.3 0)
(-48.3301 269.474 0)
(822.881 2532.46 0)
(-96.3541 352.243 0)
(-242.777 2395.45 0)
(-916.709 1949.56 0)
(-155.622 2545.67 0)
(283.434 2743.6 0)
(2222.51 869.759 0)
(33.4878 102.887 0)
(-702.005 2703.47 0)
(79.8393 707.685 0)
(-59.0661 338.89 0)
(-537.774 2522.5 0)
(-2140.74 656.956 0)
(147.093 554.696 0)
(-404.157 2609.98 0)
(31.6693 122.912 0)
(2067.99 470.985 0)
(659.761 2339.58 0)
(-279.58 2778.99 0)
(-223.461 772.545 0)
(-1376.28 1433.53 0)
(-629.391 2605.46 0)
(22.0681 2492.75 0)
(435.377 74.5942 0)
(197.273 651.436 0)
(760.203 2390.17 0)
(1184.17 904.703 0)
(89.195 346.101 0)
(344.761 2395.33 0)
(861.919 2496.51 0)
(2194.95 984.222 0)
(22.2325 1200.97 0)
(-449.442 2586.88 0)
(190.679 2223.61 0)
(872.81 2398.82 0)
(41.2938 937.214 0)
(344.932 2621.09 0)
(257.328 2557.51 0)
(525.422 2028.84 0)
(-182.06 1679.77 0)
(-1253.66 1071.35 0)
(-491.968 2604.03 0)
(54.0585 932.38 0)
(-479.384 2190.12 0)
(-3.09301 472.922 0)
(474.543 2552.86 0)
(1286.48 2494.02 0)
(-929.437 2646.5 0)
(-11.8014 193.627 0)
(-451.87 2589.52 0)
(87.7419 319.845 0)
(346.256 2700.62 0)
(-154.7 2614.35 0)
(-87.4644 2702.4 0)
(-1542.57 1470.99 0)
(184.058 2421.98 0)
(-23.0173 763.103 0)
(0.296797 0.894951 0)
(178.696 2345.98 0)
(-1732.39 1522.52 0)
(-263.008 2427.46 0)
(-1966.91 1195.75 0)
(1579.23 2031.02 0)
(555.687 2556.34 0)
(-401.978 2567.26 0)
(46.8245 158.789 0)
(-482.325 1919.95 0)
(413.355 2672.59 0)
(-1.75421 479.548 0)
(-1101.72 2497.65 0)
(-10.182 65.948 0)
(1636.16 1227.58 0)
(-1884.69 1083.92 0)
(-83.4821 323.062 0)
(47.7686 249.305 0)
(-56.7621 469.524 0)
(0.768944 0.9541 0)
(-1194.28 2394.65 0)
(33.5993 109.458 0)
(-945.931 1422.21 0)
(786.825 2627.96 0)
(-1521.44 2191.01 0)
(-2104.97 1231.4 0)
(-58.7037 2667.49 0)
(60.013 938.479 0)
(127.993 2733.09 0)
(-1858.91 967.627 0)
(667.01 2092.7 0)
(-38.3662 267.647 0)
(394.414 2390.14 0)
(-27.606 124.534 0)
(-45.1511 2379.69 0)
(1084.08 484.991 0)
(-564.503 2237.32 0)
(-839.972 2560.75 0)
(-1672.46 830.773 0)
(-95.9637 327.682 0)
(1387.37 2051.17 0)
(1219.22 278.364 0)
(-85.2899 2154.03 0)
(-2211.74 1415.19 0)
(145.971 557.42 0)
(-28.3289 603.101 0)
(1381.81 450.378 0)
(450.331 2653.24 0)
(125.785 2708.04 0)
(1.42344 1189.74 0)
(499.354 492.635 0)
(1646.93 1695.4 0)
(-60.4876 2055.98 0)
(-253.506 2348.41 0)
(-1157.23 2552.95 0)
(-1665.5 1263.88 0)
(-1508.54 2187.78 0)
(2280.46 713.052 0)
(-1741.69 1615.44 0)
(32.5192 105.396 0)
(252.82 2589.35 0)
(410.822 1841.79 0)
(-42.374 167.363 0)
(-69.6489 638.532 0)
(42.096 327.564 0)
(-742.844 1670.7 0)
(-183.034 803.11 0)
(206.194 2618.19 0)
(97.318 358.638 0)
(1305.39 2434.59 0)
(1791.97 1102.97 0)
(962.799 2620.19 0)
(-5.67103 2492.82 0)
(-2138.25 666.286 0)
(-0.152833 18.2028 0)
(46.1546 944.561 0)
(-127.587 709.679 0)
(-318.946 418.848 0)
(-1816.48 1811.98 0)
(-14.8896 95.4518 0)
(1582.1 1661.25 0)
(-1481.64 1272.22 0)
(291.264 2574.82 0)
(68.7271 2479.86 0)
(19.6276 284.363 0)
(-1950.16 431.406 0)
(1639.3 2284.03 0)
(1991.81 589.604 0)
(-576.451 1939.18 0)
(39.3689 324.116 0)
(953.443 1948 0)
(-76.7395 330.614 0)
(-53.4678 1149.4 0)
(802.746 2600.33 0)
(774.634 2586 0)
(1328.85 2346.68 0)
(47.4359 437.021 0)
(-1182 2507.77 0)
(-1474.78 1122.13 0)
(-268.153 2798.2 0)
(-57.7052 2656.07 0)
(47.411 173.314 0)
(1450.81 642.434 0)
(793.669 2656.12 0)
(-869.435 2577.03 0)
(-1881.3 1640.34 0)
(-183.299 2820.31 0)
(-79.6426 658.42 0)
(404.212 2422.9 0)
(-870.214 2557.3 0)
(-62.8849 2091.48 0)
(899.891 2588.95 0)
(-32.9387 101.749 0)
(86.4121 2862.08 0)
(446.648 2715.08 0)
(22.6548 528.399 0)
(600.596 2548.21 0)
(53.4118 422.706 0)
(134.07 2545.7 0)
(1970.14 714.944 0)
(470.953 2632.67 0)
(-1679 2019.55 0)
(-1507.4 1150.36 0)
(565.954 2534.73 0)
(60.1626 274.998 0)
(-1555.25 516.861 0)
(82.1492 2831.59 0)
(-557.232 2631.16 0)
(941.484 2569 0)
(299.024 2726.61 0)
(139.391 701.815 0)
(1796.53 1169.17 0)
(614.748 2546.18 0)
(-104.872 410.763 0)
(-31.0856 732.933 0)
(-460.707 2384.56 0)
(-28.8421 131.104 0)
(199.012 2558.3 0)
(-1663.94 2032.72 0)
(82.7968 316.347 0)
(-37.1381 2516.73 0)
(32.2121 97.9821 0)
(24.5889 2844.04 0)
(-98.4471 2509.8 0)
(909.279 1798.36 0)
(684.144 2062.34 0)
(369.493 2452.99 0)
(4.28314 1153.46 0)
(-860.73 2379.15 0)
(-1254.24 1447.05 0)
(-658.044 1894.19 0)
(-1764.31 1313.69 0)
(-843.14 2613.21 0)
(-1403.53 379.77 0)
(-852.764 395.267 0)
(1524.15 2173.86 0)
(-101.901 2590.21 0)
(1093.34 2505.82 0)
(-165.854 2782.11 0)
(125.832 462.004 0)
(835.393 1968.03 0)
(-100.98 2344.02 0)
(-344.998 2768.78 0)
(-1367.22 2250.51 0)
(471.425 123.199 0)
(78.2562 698.349 0)
(11.453 47.1384 0)
(1932.85 2088.26 0)
(113.462 429.357 0)
(978.412 2266.32 0)
(1403.45 2090.15 0)
(-492.386 2757.57 0)
(-36.6355 141.145 0)
(-221.783 811.256 0)
(723.592 2643.72 0)
(-71.6045 816.071 0)
(1364.88 2058.68 0)
(118.817 2380.06 0)
(1316.25 2230.6 0)
(1085.5 2689.82 0)
(274.47 2526.82 0)
(-78.0735 2665.84 0)
(-1289.86 1535.3 0)
(38.7481 2540.17 0)
(-472.516 2596.57 0)
(-365.121 2415.39 0)
(-74.49 335.039 0)
(180.787 617.877 0)
(-280.392 2772.85 0)
(836.038 2596.78 0)
(1175.73 1618.67 0)
(1120.61 2398.59 0)
(738.015 1788.7 0)
(-9.63175 62.924 0)
(-1876.7 1620.87 0)
(95.8911 2836.96 0)
(796.827 2606.03 0)
(15.2308 77.8315 0)
(-118.529 436.584 0)
(135.841 694.858 0)
(-401.998 2555.72 0)
(-64.3688 1048.19 0)
(294.026 2522 0)
(-554.628 132.207 0)
(562.127 2524.95 0)
(-356.952 2173.88 0)
(-148.257 556.647 0)
(983.03 2372.83 0)
(-8.81118 247.434 0)
(-127.217 2737.26 0)
(466.312 2289.72 0)
(-2061.66 1627.12 0)
(908.148 1946.46 0)
(-344.015 1496.53 0)
(-702.767 1674.95 0)
(-57.7071 220.664 0)
(-1596.8 2077.16 0)
(-2219.06 634.579 0)
(-845.514 1396.3 0)
(1034.38 1424.04 0)
(170.637 2484.96 0)
(-532.919 2215.24 0)
(14.1762 2742.58 0)
(-267.579 2803.62 0)
(116.373 440.268 0)
(-523.514 2633.75 0)
(-1854.9 1001.87 0)
(-1991.51 1456.14 0)
(375.877 1675.29 0)
(690.942 246.381 0)
(-1448.86 1374.53 0)
(-2169.06 904.036 0)
(26.8413 690.318 0)
(61.1573 210.61 0)
(-1567.94 2197.58 0)
(855.559 2362.43 0)
(321.061 2600.44 0)
(66.699 2620.48 0)
(1358.53 1914.17 0)
(1589.49 1259.59 0)
(-125.236 2639.82 0)
(-492.974 2601.25 0)
(-563.814 2616.93 0)
(1504.19 1195.78 0)
(509.556 2721.46 0)
(-97.9171 2502.85 0)
(-1746.46 1664.34 0)
(1549.59 723.012 0)
(-16.4402 160.728 0)
(1057.58 2548.19 0)
(196.501 2579.98 0)
(-92.2587 495.743 0)
(1187.8 2383.04 0)
(43.3361 2508.46 0)
(675.353 1742.59 0)
(180.029 743.012 0)
(-125.282 2347.6 0)
(354.795 2682.41 0)
(355.081 2675.15 0)
(265.972 2498.56 0)
(-143.152 2595.12 0)
(1200.17 1713.87 0)
(158.402 1459.47 0)
(-1424.55 375.516 0)
(546.318 2378.2 0)
(54.8861 204.067 0)
(477.776 2630.61 0)
(606.058 2299.42 0)
(-1115.8 2455.88 0)
(665.547 2523.66 0)
(1.91914 30.7334 0)
(17.5676 2591 0)
(1026.11 2413.28 0)
(18.1707 2591.24 0)
(-5.58233 80.6049 0)
(-125.488 686.179 0)
(-2012.97 593.225 0)
(-2010.47 600.935 0)
(45.659 195.929 0)
(0.348444 0.697167 0)
(-817.32 2618.41 0)
(2027.42 1760.97 0)
(73.2662 2445.71 0)
(1144.63 253.286 0)
(-1265.66 2345.36 0)
(6.3809 951.434 0)
(1936.15 439.295 0)
(1186.68 2568.77 0)
(53.9715 412.572 0)
(-78.4934 2322.86 0)
(-1801.77 1054.26 0)
(-17.7502 163.032 0)
(-35.7034 121.05 0)
(1273.51 2337.56 0)
(-413.285 1743.57 0)
(-929.257 1935.78 0)
(-1081.36 2474.66 0)
(89.1803 2618.8 0)
(-134.551 2349.02 0)
(-1293.66 2303.6 0)
(809.408 2591.32 0)
(-417.808 1513.93 0)
(-210.005 740.286 0)
(200.755 2416.37 0)
(-69.7548 482.215 0)
(-1489.82 2184.88 0)
(2180.24 529.206 0)
(126.396 949.632 0)
(1099.53 2624.07 0)
(-2059.33 974.616 0)
(-1585.41 1882.4 0)
(139.648 798.986 0)
(-176.781 656.404 0)
(-252.58 2577.92 0)
(92.1578 1911.38 0)
(-413.971 2244.93 0)
(-2090.83 511.012 0)
(-1729.01 1614.85 0)
(-1489.11 363.884 0)
(-2230.01 622.142 0)
(2235.23 805.349 0)
(-41.6129 2596.18 0)
(-123.418 675.805 0)
(-485.696 2349.74 0)
(-358.727 2636.24 0)
(-703.282 2511.59 0)
(79.444 726.827 0)
(-70.9582 647.012 0)
(1040.05 2518.33 0)
(1055.33 2389.54 0)
(-78.3645 608.474 0)
(1023.54 1410.5 0)
(-1206.77 2530.29 0)
(-131.342 483.498 0)
(183.644 2626.87 0)
(-176.62 847.207 0)
(485.184 2510.39 0)
(-203.228 2057.87 0)
(74.9796 2431.36 0)
(503.959 2640.91 0)
(-822.788 2616.85 0)
(1005.28 2548.08 0)
(0.359722 0.515192 0)
(36.4034 2297.07 0)
(-36.5745 385.147 0)
(-244.861 2722.95 0)
(-445.586 2259.31 0)
(-36.4602 378.821 0)
(-318.342 2657.66 0)
(837.293 2621.73 0)
(557.835 2365.75 0)
(-2198.28 581.159 0)
(-117.973 433.146 0)
(-1639.2 336.306 0)
(47.1633 407.178 0)
(1385.43 2421.63 0)
(-371.398 2654.46 0)
(194.809 2582.53 0)
(761.89 2611.42 0)
(-598.97 2376.91 0)
(848.758 2600.91 0)
(-114.767 2726.5 0)
(60.9995 1443.91 0)
(616.012 2548.86 0)
(-1749.77 1485.15 0)
(-115.395 2792.7 0)
(-2173.84 582.186 0)
(416.121 2545.13 0)
(-44.146 1110.75 0)
(46.4756 447.994 0)
(-1512.51 2259.15 0)
(17.8986 280.617 0)
(260.709 1386.22 0)
(-12.9205 92.6547 0)
(-1572.86 1900.4 0)
(1543.68 1280.13 0)
(-26.1932 2813.08 0)
(-71.2607 802.313 0)
(411.366 2470.87 0)
(-211.318 359.166 0)
(512.11 2716.77 0)
(-1189.12 2467.05 0)
(-620.58 2699.01 0)
(-2195.88 1463.99 0)
(133.433 2598.18 0)
(-582.224 2637.84 0)
(1939.86 1453.54 0)
(401.89 2066.91 0)
(42.3188 155.564 0)
(-715.108 1691.92 0)
(-1948.05 1892.37 0)
(-119.428 2573.04 0)
(146.219 987.138 0)
(179.996 2304.86 0)
(-1239.54 317.104 0)
(-0.636135 12.0193 0)
(-1593 991.116 0)
(1548.98 2005.14 0)
(-759.504 2625.76 0)
(2130.77 489.365 0)
(65.9278 2363.53 0)
(392.343 2700.81 0)
(583.021 2269.24 0)
(785.07 2555.07 0)
(649.872 2314.76 0)
(-22.1524 372.046 0)
(-420.448 2195.49 0)
(179.262 835.129 0)
(94.8084 1912.59 0)
(1707.89 1619.91 0)
(-183.982 2593.95 0)
(202.864 2720.71 0)
(691.058 104.504 0)
(-1248.52 2389.76 0)
(-169.334 2580.03 0)
(77.9118 267.303 0)
(-1800.53 1088.24 0)
(-851.884 406.772 0)
(-337.596 475.037 0)
(-109.078 2560.79 0)
(-62.2049 325.525 0)
(321.747 1656.67 0)
(39.2761 376.391 0)
(359.999 2449.9 0)
(126.245 2601.99 0)
(-712.865 1566.34 0)
(52.3314 1076.59 0)
(-1527.26 2208.83 0)
(-14.2844 486.476 0)
(1233.54 1370.95 0)
(-99.3964 2657.84 0)
(565.399 2593.98 0)
(30.4271 2716.74 0)
(1133.33 774.657 0)
(-453.604 2338.61 0)
(1351.82 2286.36 0)
(1120.33 1574.65 0)
(-2228.97 638.858 0)
(413.981 2545.96 0)
(-1799.24 390.881 0)
(-397.519 2239.19 0)
(68.9594 738.388 0)
(59.7969 2842.6 0)
(-1056.4 2510.58 0)
(-23.9059 2571.45 0)
(-804.043 2627.73 0)
(617.813 2673.29 0)
(1573.04 857.166 0)
(255.699 2722.54 0)
(-787.693 2569.42 0)
(292.418 2532.54 0)
(0.152697 0.242007 0)
(-2187.55 833.146 0)
(-361.97 2177.71 0)
(-1814.41 1673.58 0)
(76.4775 735.611 0)
(42.2528 446.408 0)
(-62.4976 340.572 0)
(288.309 2509.74 0)
(2295.1 613.1 0)
(135.292 2433.34 0)
(-21.3982 590.434 0)
(602.68 2711.74 0)
(-378.583 2734.65 0)
(-593.29 2596.58 0)
(1751.55 1843.87 0)
(-1654.37 2088.35 0)
(-832.918 2619.84 0)
(1502.17 1982.27 0)
(1167.97 2547.13 0)
(972.1 1899.86 0)
(-1205.23 2364.1 0)
(89.3711 355.047 0)
(-1230.47 1389.12 0)
(1267.83 2101.11 0)
(419.404 2655.72 0)
(-1101.17 2529.34 0)
(-213.779 2287.19 0)
(1411.14 2272.03 0)
(-43.5398 165.594 0)
(298.148 2514.2 0)
(1260.48 1585.75 0)
(-1123.23 2504.32 0)
(-42.5546 259.521 0)
(49.4157 238.228 0)
(-1012.56 2602.59 0)
(1741.35 2250.06 0)
(-26.5616 2631.45 0)
(1854.03 1854.86 0)
(1046.7 2539.26 0)
(-2042.01 1406.17 0)
(-1698.1 1724.23 0)
(-11.1737 481.906 0)
(2222.68 711.554 0)
(-41.6625 207.305 0)
(1777.28 382.951 0)
(-1256.17 2323.7 0)
(-502.353 2694.88 0)
(1875.66 1566.48 0)
(1334.92 2238.95 0)
(8.28345 9.98349 0)
(-75.1671 277.195 0)
(-788.674 1652.4 0)
(-1603.32 1320.25 0)
(-1783.81 1471.68 0)
(-1735.98 609.603 0)
(165.318 706.762 0)
(-12.7772 2701.09 0)
(245.417 2767.06 0)
(1734.64 1970.49 0)
(1383.62 1144.06 0)
(2.36046 5.67122 0)
(-428.733 2579.65 0)
(-27.8896 146.822 0)
(847.221 2518.8 0)
(898.175 2641.94 0)
(1210.07 2371.71 0)
(37.477 2506.81 0)
(1091.22 2464.12 0)
(1046.37 2363.64 0)
(2145.74 491.719 0)
(62.9811 732.543 0)
(-70.0293 271.761 0)
(-994.704 292.449 0)
(-1539.34 2185.67 0)
(-54.5262 2513.71 0)
(158.437 2359.58 0)
(-51.3311 2750.34 0)
(-775.025 1831.54 0)
(2242.64 781.689 0)
(-1469.25 1277.61 0)
(1767.74 1908.36 0)
(889.429 1977.59 0)
(-19.5451 344.125 0)
(576.312 2017.34 0)
(182.504 2717.53 0)
(-1224.34 2472.04 0)
(-513.103 1955.07 0)
(-1940.94 1032.3 0)
(1660.11 1215.97 0)
(769.134 2626.88 0)
(1034.53 2242.45 0)
(-232.931 2096.56 0)
(611.863 2525.8 0)
(847.125 1662.27 0)
(990.947 2464.22 0)
(1349.31 2323.06 0)
(185.004 1925.08 0)
(-162.753 600.674 0)
(-210.407 899.246 0)
(166.057 636.501 0)
(1459.7 2298.02 0)
(35.5535 374.456 0)
(26.6908 1041.69 0)
(1273.05 1473.84 0)
(-11.5446 2503.55 0)
(960.003 2627.45 0)
(-1807.95 844.157 0)
(1757.44 2001.53 0)
(-97.2872 348.041 0)
(860.897 2561.22 0)
(1063.9 2509.22 0)
(-689.818 2673.88 0)
(1852.22 1572.59 0)
(428.113 2645.72 0)
(48.9732 412.455 0)
(-792.652 2510.79 0)
(1322.56 1722.49 0)
(-40.4338 209.829 0)
(311.951 2164.06 0)
(177.314 2027.72 0)
(901.699 1762.65 0)
(1663.3 1930.63 0)
(-297.249 2110.19 0)
(-1072.32 2237.29 0)
(-503.704 2626.19 0)
(-143.234 2742.83 0)
(-828.015 2570.42 0)
(2065.53 544.147 0)
(-479.123 2701.87 0)
(945.269 250.556 0)
(-1507.82 714.354 0)
(-528.048 2627.44 0)
(-75.1203 632.249 0)
(-1262.83 2493.21 0)
(-73.6845 2299.32 0)
(175.249 2618.71 0)
(1724.07 1410.98 0)
(-190.658 1898.38 0)
(639.836 2367.95 0)