# rho  FACE_DATA 23640
#  x  y  z  rho
-0.00296834 0.0159323 0 0.000148148
0.000794309 0.0100339 0 0.000538007
0.00690979 0.0130745 0 1.43504e-005
0.000158008 0.0018211 0 0.0481464
-0.000662165 0.0113619 0 0.000524007
-0.00203768 0.00587959 0 0.00107027
-0.000220137 0.00748479 0 0.000293124
0.00214531 0.0125841 0 0.000703114
-0.00164167 0.00702341 0 0.00115413
0.00020958 0.00306993 0 0.00181157
4.59799e-005 0.00273939 0 0.0464301
0.00075606 0.00524313 0 0.000505735
0.00107075 0.0257944 0 0.000393454
-0.000458708 0.0115994 0 0.000472995
-0.000900467 0.00350322 0 0.00145049
-0.00222355 0.00655891 0 0.000987752
0.00442703 0.0182294 0 7.54837e-005
7.09705e-005 0.00299924 0 0.0328325
-2.45517e-005 0.00292714 0 0.0407056
-0.000543852 0.00394831 0 0.00111399
7.98376e-005 0.00283498 0 0.0450575
0.00510868 0.0124654 0 1.34909e-005
7.37866e-005 0.00284217 0 0.0447943
-0.000122136 0.00287943 0 0.0443959
0.00117211 0.0120328 0 0.000685948
0.000340217 0.00636002 0 0.000406864
-1.62375e-005 0.00331413 0 0.00622448
0.000288499 0.00391811 0 0.00150363
0.00604323 0.0215883 0 5.25895e-005
0.0015748 0.0199438 0 0.00056139
0.000642306 0.0286533 0 0.000327651
-0.000788091 0.000235815 0 0.0719845
8.45076e-005 0.00283429 0 0.0451319
-0.000766033 0.00453527 0 0.000673326
-0.000556446 0.00360452 0 0.00118469
-0.000694613 0.00330261 0 0.00148301
0.00425461 0.0181246 0 7.89758e-005
0.00563158 0.0299784 0 0.00019298
0.00374311 0.0125452 0 2.94361e-005
-0.000168184 0.00269727 0 0.047753
0.00100487 0.00483203 0 0.000567268
-0.00170325 0.00704586 0 0.00117438
-0.00047461 0.0123053 0 0.000479963
-0.00401905 0.0129379 0 2.75106e-005
0.000128446 0.00148328 0 0.0484828
0.000108141 0.00315803 0 0.00783536
0.00299545 0.0176096 0 0.00014482
0.00122698 0.00708374 0 0.000500662
0.000214903 0.00307399 0 0.00179317
0.00225142 0.0126586 0 0.000592198
0.000204708 0.00068009 0 0.0662383
4.25297e-005 0.00299727 0 0.0339358
-0.000477288 0.00315875 0 0.00136282
-0.00378992 0.02149 0 0.000103616
0.000139812 0.00181138 0 0.0480777
0.000208917 0.00302796 0 0.00119437
-0.00160791 0.0049468 0 0.00151651
0.000941143 0.00995448 0 0.000603699
8.9442e-006 0.010956 0 0.000195074
-0.000434056 0.00133506 0 0.050462
0.000566946 0.0289715 0 0.000317696
-7.40414e-005 0.003214 0 0.00823421
-0.000145493 0.00239699 0 0.0484692
3.42483e-005 0.00298986 0 0.0351565
0.000575544 0.00987125 0 0.000244845
3.71363e-005 0.00299095 0 0.0349974
-0.00247102 0.00772987 0 0.000799064
0.00096928 0.0118325 0 0.000641817
-9.22697e-005 0.00299969 0 0.0287021
-0.000570617 0.0122505 0 0.000496339
-0.000211411 0.00254812 0 0.0486181
-0.000765289 0.00457715 0 0.00066659
8.13068e-005 0.00294139 0 0.0410636
-0.00437678 0.0203082 0 8.16592e-005
0.00226862 0.00661101 0 0.000927309
-0.000832194 0.000220534 0 0.0712968
-0.000164868 0.00301134 0 0.00128005
0.0012393 0.0259768 0 0.000379711
-2.48279e-005 0.00292318 0 0.0409935
0.000116572 0.00245177 0 0.0482768
9.77655e-005 0.00313112 0 0.00919781
0.000279024 0.00328636 0 0.00250007
-5.75605e-005 0.0116355 0 0.000328503
-7.47936e-005 0.0117342 0 0.000329959
0.000518168 0.00993111 0 0.000228737
-0.000154608 0.0030256 0 0.00155333
4.53443e-005 0.00299839 0 0.0337796
-0.000161071 0.0027724 0 0.046839
0.000104836 0.00293916 0 0.0414915
-0.00100104 0.00361077 0 0.00155835
-0.000510005 0.00921774 0 0.000232085
0.00100295 0.0100141 0 0.000614116
-0.000646084 0.00336418 0 0.0017283
6.96906e-005 0.00293287 0 0.0411772
-1.67264e-005 0.00300289 0 0.0334154
0.000173509 0.0227352 0 0.000564495
3.17037e-005 0.00298455 0 0.0357897
0.000312244 0.00306502 0 0.00130486
-0.00212604 0.00906512 0 0.000937805
-0.00049218 0.00322389 0 0.00161082
0.000341345 0.00323843 0 0.00174963
-0.00385942 0.0216496 0 0.000104006
-0.000125834 0.0028813 0 0.044178
0.00524627 0.0255212 0 0.000171047
0.000713781 0.0036837 0 0.00110778
0.00601727 0.0299149 0 0.000184034
-0.000344095 0.00203632 0 0.0491374
-0.0047341 0.0239481 0 0.000138252
-0.000460773 0.00539436 0 0.000545951
-0.00196148 0.00905338 0 0.00095311
0.00143807 0.0303782 0 0.000289866
7.94637e-005 0.00293894 0 0.0411554
0.00013473 0.00481908 0 0.000767715
0.00105264 0.00484794 0 0.00059234
0.000112877 0.0030262 0 0.00481316
-0.00781161 0.0282885 0 9.64674e-005
-0.000846622 0.00344471 0 0.00143246
-0.00206201 0.0306837 0 0.000270329
-0.00313594 0.0160362 0 0.000134505
0.00144289 0.0198776 0 0.000585578
-0.000135136 0.00286502 0 0.044528
-0.000205101 0.000950881 0 0.0516883
0.000372212 0.00308853 0 0.00121581
0.000370404 0.000795868 0 0.056322
0.000201681 0.00347815 0 0.00280784
-0.000147808 0.00278598 0 0.0465497
0.000218103 0.000637733 0 0.0687763
0.000195722 0.00313377 0 0.00308819
-0.00203813 0.00594128 0 0.00108737
0.00112067 0.00510142 0 0.000579292
5.16573e-005 0.00373385 0 0.00216655
0.000381501 0.00336875 0 0.00165564
0.000860715 0.0258401 0 0.000411714
-0.000116556 0.00339842 0 0.00403713
-0.00513668 0.0257477 0 0.00018014
-0.000162894 0.00277847 0 0.0467504
8.27341e-005 0.00277738 0 0.0461395
0.0010674 0.0118759 0 0.000661674
-4.09992e-005 0.00275121 0 0.0462488
3.29665e-005 0.00297369 0 0.037053
-0.00204547 0.0090065 0 0.00096863
-0.00160474 0.0048986 0 0.00148653
8.25825e-005 0.00294819 0 0.040575
4.00473e-005 0.00273627 0 0.0464472
-9.41642e-005 0.00295571 0 0.0401712
0.00150619 0.00997327 0 0.000809166
8.22134e-005 0.00268838 0 0.0471645
-0.000160791 0.00267895 0 0.0477699
-0.000596112 0.00909085 0 0.000241642
-9.31423e-005 0.00299701 0 0.0306975
0.00235681 0.0126226 0 0.000577854
0.00203765 0.00557212 0 0.00104628
-0.000165794 0.0115731 0 0.00032331
6.0159e-005 0.0021996 0 0.0481323
0.000371981 0.00362464 0 0.00170852
-0.00733688 0.029685 0 0.000139705
-0.000180414 0.00743151 0 0.000294104
-0.000357207 0.004885 0 0.000697839
0.00253943 0.00813968 0 0.000778997
-1.29377e-005 0.00332967 0 0.00617575
-0.0010235 0.00361199 0 0.00155821
-0.000285329 0.0030748 0 0.00136085
-0.000681311 0.00329291 0 0.00140849
-0.00260727 0.00895038 0 0.000727146
0.00788717 0.0276195 0 7.19672e-005
0.0089704 0.0287411 0 6.61721e-005
-0.000270534 0.00232157 0 0.0490736
-0.00014416 0.00312601 0 0.00555936
-0.000337662 0.00201762 0 0.0491019
0.0003962 0.00337513 0 0.00164708
0.00121317 0.00701782 0 0.000499914
0.000116206 0.00302915 0 0.00474361
0.00225197 0.00666935 0 0.000914541
-0.000507665 0.00548922 0 0.000525298
-0.000231863 0.00226746 0 0.0488306
0.000244361 0.00226851 0 0.0489286
0.00111028 0.00505498 0 0.000582954
0.000121223 0.00304184 0 0.00487734
0.00012049 0.00243938 0 0.048322
-0.0013386 0.0186068 0 0.000575742
0.000102064 0.00149733 0 0.0484114
0.000147362 0.00301363 0 0.00134663
0.00106981 0.0119939 0 0.000658943
-0.000365953 0.00411169 0 0.00118962
0.00557444 0.020358 0 5.73492e-005
4.86089e-005 0.00307386 0 0.0195444
-0.000177413 0.0035472 0 0.00276638
-0.000632994 0.00339325 0 0.0017551
0.000487307 0.00130985 0 0.0510715
-0.000349424 0.00402777 0 0.00130123
-0.00177251 0.00629586 0 0.00143644
-7.92525e-005 0.00273084 0 0.046727
0.000241714 0.00100077 0 0.0509674
-0.000154516 0.0114773 0 0.000317469
0.00502442 0.0222916 0 7.10672e-005
-0.000166546 0.00272686 0 0.0474481
0.000707598 0.00365891 0 0.00114241
-0.00157418 0.0046046 0 0.00139536
0.000122725 0.00301099 0 0.00169139
0.000172305 0.00324558 0 0.00434309
7.46185e-006 0.00286175 0 0.0436568
0.00533293 0.0140838 0 2.35204e-005
0.00520504 0.0284215 0 0.000201475
-0.00170266 0.00713636 0 0.00118736
4.38765e-005 0.00290514 0 0.0420973
0.00035679 0.0099507 0 0.000192478
0.000120447 0.00300871 0 0.00185627
7.85992e-005 0.00284146 0 0.0449083
0.000146556 0.00306157 0 0.00330711
-0.000265484 0.00230758 0 0.0490576
-0.000558184 0.0114136 0 0.000496648
0.000873988 0.011905 0 0.000615678
0.00195145 0.0157285 0 0.000313583
0.000415959 0.00988952 0 0.00020098
0.00204861 0.00551694 0 0.00112976
0.00159497 0.00893937 0 0.00088132
0.00125366 0.00690066 0 0.000597407
-0.000537482 0.00397822 0 0.00106698
-0.00245206 0.00890865 0 0.000754634
-0.00591638 0.015069 0 2.26293e-005
0.00182541 0.0157696 0 0.000333926
-6.39179e-005 0.00274368 0 0.0464364
1.24162e-005 0.00286011 0 0.0437536
0.000785526 0.00520879 0 0.000512625
0.000119132 0.00288179 0 0.0443784
0.000107617 0.00492998 0 0.000733953
-0.000398708 0.00617064 0 0.000407782
-0.00031795 0.000861625 0 0.052897
-0.0054742 0.0145195 0 2.22919e-005
-0.00050603 0.0093045 0 0.000232824
-0.00281713 0.0160093 0 0.000163067
-0.00521587 0.0225645 0 6.85755e-005
0.000631138 0.00410172 0 0.000916528
0.00077675 0.0118594 0 0.00057954
-0.000339893 0.00491785 0 0.000677159
0.000278502 0.0033019 0 0.00248508
-0.000206291 0.0025551 0 0.0485884
0.0015782 0.00885327 0 0.000882049
-0.000601058 0.00917374 0 0.000243128
0.000107852 0.00308374 0 0.00868811
0.000329157 0.00324408 0 0.00187789
-0.000107456 0.0030138 0 0.0049175
0.000995869 0.00478803 0 0.000574163
-0.00176263 0.00715431 0 0.00119573
0.000133123 0.00190024 0 0.0481145
0.00428452 0.0222831 0 9.08057e-005
0.00249322 0.0134845 0 0.00031277
0.000209201 0.00303326 0 0.00125023
1.124e-005 0.00241342 0 0.0480904
-0.000138897 0.00282521 0 0.0459435
-0.000422518 0.00130967 0 0.0505613
0.000897928 0.00602889 0 0.000407527
0.00296246 0.0177704 0 0.000142984
-0.000240922 0.0022558 0 0.0488545
0.000161456 0.0106342 0 0.000182995
-0.000169117 0.00269067 0 0.0477216
-0.00600599 0.0132277 0 1.18579e-005
-0.00498542 0.0226529 0 7.21218e-005
0.00035646 0.00189436 0 0.0490403
0.000360867 0.00193124 0 0.049059
0.000188008 0.00159518 0 0.0483508
0.00315697 0.0294361 0 0.000284202
0.000380728 0.00331446 0 0.00165501
-0.000407732 0.00541329 0 0.000535768
0.00599218 0.0187772 0 4.18918e-005
-0.000475668 0.0124289 0 0.000484574
9.243e-005 0.00339173 0 0.00452422
-0.0022067 0.00902531 0 0.000918208
0.000138287 0.010546 0 0.000182873
-4.59787e-005 0.00300592 0 0.0323721
0.000475334 0.00325723 0 0.00171608
0.0081269 0.0233608 0 3.3863e-005
-0.000136448 0.00286953 0 0.0445844
0.000465099 0.00132931 0 0.0507523
0.000196949 0.00312437 0 0.00292463
-0.000725979 0.00459524 0 0.000711391
0.00566025 0.0201173 0 5.77814e-005
-0.000237093 0.000937504 0 0.0521021
-7.15727e-006 0.00298867 0 0.0352781
-0.000556128 0.00552312 0 0.000510414
-0.000151452 0.00278159 0 0.0467426
0.00604583 0.0167381 0 3.19145e-005
5.44524e-005 0.00307484 0 0.0189206
3.5211e-005 0.00270778 0 0.0467586
-0.00210731 0.0068781 0 0.00117393
8.91266e-005 0.00319599 0 0.00822708
-0.00242079 0.00974735 0 0.000856906
0.00135885 0.00413507 0 0.0013839
-0.00108228 0.00797081 0 0.000449917
3.29303e-005 0.00271504 0 0.0466415
-0.000508078 0.0208168 0 0.000717894
-0.00472826 0.0198065 0 6.87241e-005
0.00152826 0.0090827 0 0.000847695
-0.00252462 0.00897287 0 0.000779599
-4.09377e-005 0.0027578 0 0.046168
-0.00186927 0.0116808 0 0.000826962
0.00108447 0.00518193 0 0.000534452
-0.00419392 0.0202211 0 8.70108e-005
0.000296615 0.00594885 0 0.000460899
0.00365557 0.0156923 0 9.96366e-005
-0.000138643 0.00311989 0 0.00582418
3.44704e-005 0.00298593 0 0.0356198
-0.000249911 0.000891772 0 0.0526072
0.00110337 0.0099601 0 0.000663785
8.04689e-005 0.00279643 0 0.0457601
0.00779157 0.0249956 0 3.95719e-005
0.000351464 0.00337107 0 0.00185452
-0.00012879 0.00323538 0 0.00574856
0.000155895 0.00168996 0 0.0482319
8.56943e-005 0.00294739 0 0.0407362
0.0053023 0.0238774 0 7.95009e-005
0.000238423 0.00318026 0 0.00258533
0.000230406 0.00226533 0 0.0488336
-5.15866e-005 0.00292996 0 0.0408525
2.57476e-005 0.00286927 0 0.0434789
0.000105066 0.00340141 0 0.00426982
-0.0006343 0.00341198 0 0.00172411
-0.00683177 0.0130924 0 1.11248e-005
-1.54609e-005 0.00299907 0 0.0339477
-0.00215958 0.00656839 0 0.00104517
0.00301179 0.0141363 0 0.000144356
-0.000723924 0.00463742 0 0.000702223
-0.000555458 0.00358088 0 0.00123283
0.000287933 0.00394954 0 0.00147561
-0.00525881 0.0259389 0 0.000173489
-0.000235386 0.00314485 0 0.00238075
-0.000664883 0.00104525 0 0.0539852
0.00182857 0.0107598 0 0.0008328
0.00289308 0.0133881 0 0.000177454
0.000556851 0.000459359 0 0.0723676
-6.31462e-005 0.00306344 0 0.0190774
0.00204396 0.0126442 0 0.00072377
-0.000369072 0.00408052 0 0.00120907
-0.00018247 0.00378321 0 0.00193347
0.000579156 0.0162179 0 0.00107221
0.00117061 0.0100074 0 0.000668775
0.000129771 0.00301154 0 0.00144424
0.00050022 0.00329429 0 0.00169659
-0.00194273 0.0117557 0 0.000802471
0.000295066 0.00600891 0 0.000461139
-0.000154748 0.0030213 0 0.00145117
8.51353e-005 0.00297491 0 0.0379388
0.000370749 0.00364798 0 0.00167582
0.00032381 0.000892659 0 0.0525936
-0.000114683 0.00273658 0 0.0469457
7.10543e-005 0.0030026 0 0.0315171
-9.6647e-005 0.00324264 0 0.00670232
0.000733896 0.00537107 0 0.000518527
0.000155197 0.00494735 0 0.000695322
0.000610019 0.00412319 0 0.000937595
0.000353717 0.00194986 0 0.0490388
-0.000244432 0.00314026 0 0.00220439
-0.00502653 0.0232658 0 7.44314e-005
-0.00178789 0.0309983 0 0.000267759
-0.000579723 0.00361754 0 0.0011835
0.00813841 0.0273314 0 5.24662e-005
-0.002496 0.0131044 0 0.000374792
-0.00431729 0.0290645 0 0.00024405
-0.000157683 0.00240005 0 0.0485312
-6.09633e-005 0.00273787 0 0.0465472
-0.000172602 0.00356894 0 0.0026131
5.95493e-005 0.00280503 0 0.0454301
3.59382e-005 0.00297531 0 0.0368937
0.0038221 0.0156522 0 8.9707e-005
0.00151814 0.00899556 0 0.000851665
0.00891208 0.0209237 0 2.82304e-005
0.00932881 0.0247628 0 3.00073e-005
0.000401147 0.00319889 0 0.00171687
-1.37134e-005 0.00292236 0 0.0409663
-0.00149883 0.0199029 0 0.000562512
-0.000151382 0.00307642 0 0.00370803
-9.99299e-005 0.00297786 0 0.0368777
0.00528439 0.0241343 0 8.77481e-005
2.61097e-005 0.00286432 0 0.043653
0.000206875 0.00349712 0 0.00279706
-0.00509797 0.0234717 0 7.53978e-005
-0.000597722 0.000953511 0 0.0542461
-0.00793898 0.0155863 0 1.62209e-005
0.00183935 0.0106624 0 0.000832537
7.52069e-005 0.00339368 0 0.00457663
-7.77056e-005 0.00294222 0 0.0407004
-9.8985e-005 0.00297992 0 0.0364609
0.00161823 0.00911669 0 0.000863836
8.21842e-005 0.00297527 0 0.037829
-0.00188133 0.00900925 0 0.000964648
-0.00617827 0.0275965 0 0.000156585
-0.000490092 0.00321051 0 0.00156026
0.00945115 0.0288751 0 6.02687e-005
-0.00016434 0.00272067 0 0.0475851
-0.00797941 0.0222445 0 3.03891e-005
-4.01564e-005 0.00301654 0 0.0308587
-0.00180498 0.00506765 0 0.00125736
-0.000161305 0.00301261 0 0.00132198
-0.000482063 0.00316965 0 0.00139095
-0.000942791 0.00378901 0 0.00185034
-0.000134053 0.00282435 0 0.0459375
0.000242746 0.000963685 0 0.0513987
0.00525461 0.0274919 0 0.000195145
0.00306352 0.0179257 0 0.000138524
-0.000120066 0.00324295 0 0.00587346
-0.00319507 0.0125029 0 8.55156e-005
-0.000290892 0.00233844 0 0.0491478
0.00159844 0.00482417 0 0.00144962
0.00787978 0.0236538 0 3.62228e-005
0.00145057 0.0259009 0 0.000398363
-0.000336257 0.00619409 0 0.000404597
-0.000333917 0.00172186 0 0.0489112
0.00577509 0.0216659 0 5.55061e-005
0.000667048 0.00332313 0 0.0015083
0.00248969 0.00807562 0 0.000802713
-0.00160944 0.00467215 0 0.00135931
1.98969e-005 0.00242157 0 0.0481037
0.000286635 0.0021356 0 0.0489203
-0.00161117 0.00618199 0 0.00140079
7.54635e-005 0.00268391 0 0.0471897
0.00101663 0.00497361 0 0.000535291
9.78423e-005 0.00320089 0 0.00773333
-0.000282098 0.0245537 0 0.000450078
0.00160534 0.0053807 0 0.00156041
0.000645555 0.00426047 0 0.000865234
0.000344665 0.00191282 0 0.0489988
-4.37224e-005 0.0030135 0 0.0311597
0.000410526 0.00592784 0 0.000448762
-0.00161438 0.00462874 0 0.00133099
0.000197339 0.00307463 0 0.00197118
-0.00787948 0.0250527 0 3.95829e-005
0.000365567 0.000836364 0 0.0541831
0.000428529 0.0031113 0 0.00124217
6.29689e-005 0.00280138 0 0.0455894
-0.00260928 0.0115127 0 0.000601369
0.00511854 0.0182191 0 5.42518e-005
-0.000191506 0.0013612 0 0.0489149
0.000255298 0.00234631 0 0.0489367
7.80872e-005 0.00285378 0 0.0446285
-6.93966e-006 0.00361778 0 0.00284349
-0.000112834 0.00273034 0 0.0470157
-0.000151306 0.00308356 0 0.00390853
0.000794921 0.00339323 0 0.00140864
0.000120559 0.00308016 0 0.00712343
-0.00060963 0.000994212 0 0.0540499
-0.000187211 0.00375918 0 0.00199133
-0.000179749 0.00239602 0 0.0486265
0.000583853 0.00320912 0 0.00135252
-0.000220391 0.00307379 0 0.00181629
-3.20721e-005 0.00313154 0 0.0149025
-0.00240166 0.00829286 0 0.00081742
-0.000107553 0.0032363 0 0.00643868
0.000485775 0.00324734 0 0.00170237
-1.6528e-005 0.00283252 0 0.044506
0.000388916 0.00319175 0 0.00172134
-0.000191501 0.000101552 0 0.0961768
-0.00244196 0.00780076 0 0.000800783
-0.000237142 0.00223825 0 0.0488343
-0.00179252 0.00511195 0 0.00128729
7.86645e-005 0.00300926 0 0.0282619
-0.00578012 0.0268724 0 0.000160998
-0.00101007 0.00801211 0 0.000367017
0.000363332 0.00337974 0 0.00184862
0.000391279 0.00186159 0 0.0492218
0.000433244 0.00317308 0 0.00152614
0.00161612 0.00543442 0 0.00155807
-0.00207993 0.00693738 0 0.00116403
0.000483914 0.00474879 0 0.000754038
0.000802557 6.40842e-005 0 0.0757403
0.00066144 0.00330597 0 0.00145386
0.00141767 0.0197289 0 0.000583007
-0.000651775 0.00329699 0 0.00150391
0.000282152 0.00304241 0 0.00118021
-0.000357054 0.00319624 0 0.00173408
-0.00178284 0.00623412 0 0.00145072
3.8992e-005 0.00380209 0 0.00206021
-0.00100109 0.0210667 0 0.000629067
0.000165033 0.00158259 0 0.0483255
0.00864187 0.0174253 0 2.30879e-005
0.00315453 0.0128329 0 0.000124075
-8.64597e-005 0.00318341 0 0.00856114
-0.000259494 0.0126492 0 0.000513357
0.000466396 0.000355167 0 0.0821866
0.000246728 0.00318708 0 0.00251407
-0.000724122 0.000493878 0 0.0625483
-0.00236534 0.0089472 0 0.000816372
-0.00585899 0.0184819 0 4.3158e-005
-0.000109395 0.00425783 0 0.0011694
-0.000225082 0.00307869 0 0.00181937
0.00116126 0.00383867 0 0.00149235
0.000146244 0.00305529 0 0.0030518
0.000106639 0.00285591 0 0.0449705
0.00516349 0.0142403 0 2.58909e-005
-0.000547118 0.0281975 0 0.000342452
-0.00314055 0.0188201 0 0.000126623
6.39205e-005 0.0034062 0 0.00431166
0.000746714 0.00049437 0 0.0647413
0.00226648 0.0258744 0 0.000352968
-0.000137355 0.00283875 0 0.0455843
0.00173233 0.0108179 0 0.000813461
-0.000334456 0.00625618 0 0.000404927
-0.000652252 0.00338145 0 0.00174459
-6.89277e-005 0.00306466 0 0.0176219
0.000126795 0.00304178 0 0.00402311
0.00478399 0.0277755 0 0.000223682
0.000516287 0.0229306 0 0.00054944
5.89116e-005 0.00254342 0 0.0478698
-0.00795861 0.0246948 0 3.96504e-005
0.00133689 0.00999394 0 0.000742333
-0.000118825 0.0220921 0 0.000630155
6.34909e-005 0.0107046 0 0.000185524
-0.000946741 0.00381309 0 0.00184422
0.00581241 0.0241952 0 6.27187e-005
-0.00487736 0.01991 0 6.81858e-005
0.00170829 0.0256098 0 0.000400159
9.98067e-005 0.00316224 0 0.00838083
0.00308063 0.0142797 0 0.00014229
-0.000279242 0.00307977 0 0.00141211
-0.000183934 0.00303725 0 0.0015028
7.83288e-005 0.00286324 0 0.0442413
-0.000440884 0.00514493 0 0.00059389
0.000455558 0.00477565 0 0.000734986
0.00520625 0.0221693 0 6.79692e-005
-0.00179507 0.00722781 0 0.00120375
5.54873e-005 0.00266826 0 0.0471843
-0.00157971 0.00456195 0 0.00136324
4.18607e-005 0.00302762 0 0.0286528
-0.000194972 5.19224e-005 0 0.0969399
-0.000846289 0.00342394 0 0.00139909
-0.00105965 0.00823661 0 0.000464331
0.000163413 0.00479131 0 0.000774554
-8.2874e-005 0.00288534 0 0.0436556
0.00157378 0.00552232 0 0.00150919
-7.66839e-005 0.00293931 0 0.040918
0.000101978 0.0109948 0 0.000202436
-0.000363872 0.00601296 0 0.000431183
0.000117978 0.00287815 0 0.0445666
0.000219153 0.00318835 0 0.0030003
-0.00163196 0.00449872 0 0.00130374
-0.000221409 0.00303399 0 0.00126932
-0.000370966 0.0244074 0 0.000462212
-0.000466554 0.00315829 0 0.00138854
0.000396164 0.00331941 0 0.00158452
-0.00482666 0.0238063 0 0.000107956
0.00133411 0.00522841 0 0.00126008
-0.00267568 0.00982141 0 0.000659672
-0.000480207 0.0219659 0 0.000622352
0.00177473 0.0106071 0 0.00083137
0.000428512 0.00597987 0 0.000449112
0.00330832 0.0202369 0 0.000121198
-0.00036699 0.012473 0 0.000482926
-0.000901486 0.00347959 0 0.00142806
-9.70158e-005 0.00294708 0 0.0408199
-0.00110466 0.0144253 0 0.000635691
-0.00107199 0.0143087 0 0.000641106
0.000113095 0.0030798 0 0.00806069
0.000776547 0.0117402 0 0.000564441
-0.000196596 0.00302496 0 0.00122619
-0.00581483 0.0148124 0 2.18748e-005
0.000125326 0.00308478 0 0.00683245
-0.00172589 0.0230235 0 0.000458327
-0.00123798 0.0114294 0 0.000645477
-0.000106038 0.00301072 0 0.00491099
7.68012e-005 0.00277918 0 0.04606
-0.000218387 0.00226751 0 0.0487743
0.00288382 0.0120736 0 0.000339588
0.000136685 0.00272066 0 0.0473024
0.00126396 0.00994364 0 0.000712784
0.000169734 0.00323168 0 0.00445877
3.33298e-005 0.00296283 0 0.0381667
7.38909e-005 0.00285244 0 0.0446012
0.00226662 0.00684142 0 0.000962519
-4.80444e-005 0.00288948 0 0.0429105
0.000117291 0.00304527 0 0.00565159
0.00044057 0.00316393 0 0.00146845
0.00025781 0.000139806 0 0.0945722
-0.000553437 0.0115383 0 0.000497436
0.00174054 0.0109254 0 0.000814817
-0.00657824 0.0304887 0 0.000163612
-0.00287878 0.0309438 0 0.000256755
-1.74214e-005 0.00292383 0 0.040889
0.000417861 0.00311152 0 0.00126458
-0.000158816 0.00302837 0 0.00160519
0.000540608 0.00339996 0 0.00141368
0.00322243 0.0179545 0 0.000122751
-0.000159371 0.0013528 0 0.0488214
0.000126077 0.0159893 0 0.00123762
-0.00432652 0.0294311 0 0.000244193
0.0015673 0.00546801 0 0.00150361
-5.0904e-005 0.00292621 0 0.0410965
-0.000106737 0.00293051 0 0.0418977
0.00275932 0.0110589 0 0.000563181
0.000556951 0.00340784 0 0.00142598
0.000399007 0.0063813 0 0.000390739
-4.55764e-005 0.00288684 0 0.0430049
5.78688e-005 0.00240298 0 0.0481377
-0.00135948 0.0128543 0 0.000726475
0.00105587 0.00489705 0 0.000559054
-0.00180772 0.00736401 0 0.00120393
8.62884e-005 0.0107917 0 0.000186538
-1.73838e-005 0.00299616 0 0.0343848
-0.000559779 0.00402893 0 0.00103634
-0.000129894 0.00339006 0 0.0040203
-0.00108645 0.0209701 0 0.000636959
-0.000355289 0.00318516 0 0.00174406
6.75287e-005 0.00268766 0 0.0470805
-1.6399e-005 0.00282695 0 0.0446758
0.000375645 0.00184967 0 0.0491407
0.000226595 0.00318087 0 0.002815
-0.00157723 0.0197887 0 0.000551559
0.000153682 0.00302297 0 0.00142047
-0.000983791 0.00376429 0 0.00191705
0.00320404 0.0139037 0 0.000124585
-0.000399729 0.0051532 0 0.00063032
-8.43671e-005 0.0028893 0 0.0435302
0.00153091 0.0204307 0 0.000575996
0.0023948 0.0125217 0 0.000574775
0.000662239 0.00525468 0 0.000552552
-0.00103759 0.0179087 0 0.000699118
-0.00194218 0.00558429 0 0.00115466
-0.000960129 0.00376594 0 0.00186571
-0.000309837 0.00306474 0 0.00125722
0.00162461 0.00920594 0 0.000861059
0.00346181 0.0203111 0 0.000111951
0.000412094 0.000782235 0 0.0570812
4.10836e-005 0.00290739 0 0.041998
0.00107752 0.00513333 0 0.000543327
-0.00139776 0.00696247 0 0.00086514
5.83714e-005 0.0023895 0 0.0481646
0.000501828 0.0119171 0 0.000496765
-2.97555e-005 0.00300349 0 0.0331832
0.00113092 0.00612109 0 0.000434642
3.11664e-005 0.00285722 0 0.0439161
-0.000756348 0.0223669 0 0.000573463
0.000606022 0.00322532 0 0.00136223
0.00858419 0.0213223 0 2.85289e-005
0.00228739 0.00873166 0 0.000941501
-0.00330691 0.0124678 0 6.25404e-005
-0.00135503 0.018735 0 0.00059535
-0.00782909 0.0173425 0 2.20462e-005
0.000179373 0.00168518 0 0.048278
0.000181353 0.0228576 0 0.000565579
0.00116853 0.00608209 0 0.000462798
0.00534216 0.0272787 0 0.000196616
0.000808836 0.00340365 0 0.00142293
-0.00176706 0.00728799 0 0.00119275
0.000366125 0.00308127 0 0.00122436
0.000142062 0.00271694 0 0.0473809
0.000456136 0.0264018 0 0.000399567
0.000149779 0.00301624 0 0.00131355
8.09965e-005 0.015903 0 0.00123228
3.07264e-005 0.00286231 0 0.043748
-0.000148146 0.00339011 0 0.00378956
-0.0064378 0.0277565 0 0.000154783
0.00072806 0.00532362 0 0.000515982
-0.00065633 0.00335203 0 0.00167592
-0.000360464 0.000878987 0 0.0529361
-9.67537e-005 0.00295742 0 0.0399873
-0.000484113 0.00948683 0 0.000238918
-0.000565445 0.00399845 0 0.00106316
0.000588623 0.00111811 0 0.053111
0.000130395 0.00304539 0 0.00381422
0.000107754 0.00285149 0 0.0450841
0.00165731 0.0250536 0 0.000411752
0.00285988 0.0119675 0 0.000396055
-9.54028e-005 0.00428588 0 0.00114786
-0.000124414 0.00317156 0 0.00663263
-0.00814733 0.0285856 0 9.46736e-005
-0.000216377 0.0031251 0 0.00251481
0.00549751 0.012219 0 1.23736e-005
-0.00550796 0.012201 0 9.585e-006
0.00287309 0.0132504 0 0.000175942
0.000396043 0.00090361 0 0.0526862
-9.96587e-005 0.00294535 0 0.0409612
-0.00215947 0.00674928 0 0.00108475
-0.000289559 0.000893856 0 0.0526427
0.00184728 0.00894591 0 0.000956601
-0.000404895 0.00611192 0 0.00040737
-0.00085135 0.00350535 0 0.00158496
3.34633e-006 0.00298331 0 0.0358825
0.00378526 0.0199019 0 0.000105835
-0.000528492 0.024373 0 0.000471757
-0.000842118 0.0116133 0 0.000556984
-0.00298148 0.0188909 0 0.000133544
5.9556e-005 0.0025331 0 0.0479119
-0.000468824 0.00121303 0 0.0511896
9.1581e-005 0.0171817 0 0.00122078
-0.00127026 0.0113439 0 0.000648298
0.00402234 0.0130084 0 3.07166e-005
-0.000363163 0.00496329 0 0.000679167
-0.00609252 0.0268039 0 0.000147995
0.000283831 0.00172705 0 0.0486468
-0.000884834 0.00452052 0 0.000650322
0.000104251 0.00312707 0 0.00861552
0.00028648 0.000908897 0 0.0522663
0.00627587 0.0218045 0 4.96909e-005
0.000138189 0.00301242 0 0.00140509
-8.45766e-005 0.00300744 0 0.0271482
-0.000367296 0.0115469 0 0.000431162
4.43738e-005 0.00303088 0 0.0279049
0.00481648 0.0179238 0 6.17435e-005
0.00149749 0.00436073 0 0.00135418
0.00128386 0.00510424 0 0.0011449
-0.000137123 0.00279496 0 0.0464714
0.00010392 0.0048879 0 0.000733165
-0.00091848 7.16259e-005 0 0.0734037
3.54985e-006 0.00298714 0 0.0354381
0.000749152 0.00426831 0 0.000766893
-0.000130195 0.00286367 0 0.0448561
0.00513916 0.0264131 0 0.0001965
-0.00145383 0.00693267 0 0.000975354
-0.000170314 0.00271408 0 0.0476154
0.000708754 0.00344963 0 0.00177689
0.000173403 0.0026398 0 0.0480515
0.00102924 0.00397184 0 0.0018426
7.04719e-005 0.00292897 0 0.0414565
-0.000154347 0.00277069 0 0.0468308
0.000152777 0.00306484 0 0.00312814
-0.0057264 0.0155753 0 2.71597e-005
-0.00516063 0.0124211 0 1.14296e-005
-0.000727401 0.00332353 0 0.00140927
0.00177507 0.00499121 0 0.00124763
-0.00104148 0.00729487 0 0.000349375
8.03056e-005 0.00285902 0 0.0444168
0.000619507 0.00322392 0 0.00133714
0.000491741 0.00344599 0 0.00135704
-8.64345e-005 0.00319528 0 0.00825557
0.000495863 0.00327729 0 0.00171831
0.00629165 0.0165428 0 2.85671e-005
-0.000348261 0.00373379 0 0.00160883
0.00695359 0.012557 0 1.27202e-005
-0.00614658 0.0186042 0 3.86591e-005
0.00446424 0.0221677 0 8.24701e-005
-0.000789844 0.00391708 0 0.000881592
0.000117774 0.00196522 0 0.048119
-0.000255362 0.0148691 0 0.00112222
-0.00503812 0.0284552 0 0.000216708
-0.000107009 0.00253653 0 0.0480848
0.000146628 0.00274959 0 0.0471176
0.00773255 0.0309094 0 0.00013101
0.000159147 0.00499252 0 0.000696335
0.000514649 0.00313677 0 0.00129039
0.00101358 0.00492618 0 0.000537888
-0.00010231 0.00251506 0 0.0480915
-0.000149253 0.0149017 0 0.00115166
-0.0026764 0.0106555 0 0.000599831
-0.000401914 0.00497223 0 0.000643574
-9.9778e-005 0.00250395 0 0.0481252
-0.000167489 0.00307565 0 0.002864
0.00547148 0.0254757 0 0.00015347
6.86885e-005 0.00304125 0 0.0215749
-0.00443178 0.028435 0 0.000237832
-9.60567e-005 0.00299261 0 0.0334155
0.00605816 0.0243911 0 5.89537e-005
-0.00166852 0.0218177 0 0.000510299
3.51271e-005 0.00306949 0 0.0219135
0.00934401 0.0252145 0 3.00728e-005
0.000689131 0.0161709 0 0.000932696
-0.00185288 0.0231304 0 0.000447051
-0.000635695 0.0147353 0 0.000737198
0.000424951 0.000378919 0 0.0819034
3.11571e-005 0.00341221 0 0.00431367
-0.00451594 0.0239154 0 0.000175801
4.55634e-005 0.00300278 0 0.0330565
-0.000190882 0.0026229 0 0.0483092
-0.00293428 0.0314144 0 0.000258672
0.000192455 0.0109275 0 0.000206374
-7.99306e-005 0.00301235 0 0.0264097
-0.000103784 0.019352 0 0.000914712
0.000298059 0.00179298 0 0.0486904
0.000318272 0.00306073 0 0.00128968
4.79498e-005 0.00267219 0 0.0471657
0.000550505 0.00439983 0 0.000862507
-6.64966e-005 0.00296368 0 0.038629
-0.000353929 0.0037557 0 0.00158781
0.00136689 0.00417221 0 0.0014084
0.000288631 0.0043673 0 0.00100761
-0.000116817 0.00316526 0 0.00714243
0.000228982 0.00477361 0 0.00077217
-0.00010849 0.00292752 0 0.0422386
0.00158742 0.0252298 0 0.000411707
0.00029744 0.00214644 0 0.0490217
0.00012001 0.0179918 0 0.00112562
-2.8464e-005 0.00302556 0 0.0296706
-0.000121369 0.00301027 0 0.0016951
-0.000613293 0.003423 0 0.00158561
0.000416492 0.000739339 0 0.0593724
0.00607599 0.0132862 0 1.56171e-005
-0.000118426 0.00301015 0 0.00173382
0.000338231 0.0030745 0 0.00125898
-0.000760719 0.00047075 0 0.0630848
-0.000159712 0.00339978 0 0.00369617
0.00621185 0.0259584 0 0.000107231
-0.000407926 0.00403608 0 0.00115581
5.21801e-005 0.0048277 0 0.000770629
0.00820777 0.0174274 0 2.4903e-005
-0.000651027 0.00328042 0 0.00142242
-8.91944e-005 0.00296269 0 0.0394585
-0.000640908 0.0223311 0 0.000582983
0.00498206 0.0148716 0 3.29487e-005
-0.000133404 0.00280466 0 0.0462347
-0.00284514 0.0101497 0 0.000565505
0.00015129 0.00247549 0 0.0484208
0.0036537 0.0164932 0 0.000103221
0.000170347 0.00269813 0 0.0479149
-0.00192463 0.00759706 0 0.0011967
-0.00146113 0.00452985 0 0.00161659
0.00164564 0.0109866 0 0.000801822
0.00153691 0.0307746 0 0.000291719
0.000402223 0.00321336 0 0.00170397
-0.000561587 0.00118082 0 0.0521989
-0.00107178 0.00734408 0 0.000350785
-4.6988e-005 0.00292472 0 0.0411478
0.000121356 0.00262665 0 0.0478268
-0.00180667 0.021881 0 0.000481586
-0.000301986 0.0030856 0 0.00140862
-0.000116548 0.00289513 0 0.043948
0.000683718 0.0116885 0 0.000526526
-0.000354426 0.00170815 0 0.0490526
0.000168525 0.00302989 0 0.00147311
0.0016288 0.00554363 0 0.00153172
-0.000454254 0.00780077 0 0.000269339
9.99188e-005 0.00299126 0 0.0338393
-0.000923631 0.00351832 0 0.00146183
-0.000513771 0.00531417 0 0.000539949
-0.000134682 0.0174176 0 0.00117073
0.000245462 0.00302872 0 0.00115023
-0.00010594 0.00296983 0 0.0381615
0.000263028 0.00390471 0 0.00158402
0.000668464 0.00324245 0 0.00131656
-0.00016736 0.00267447 0 0.0478441
9.47415e-005 0.00371123 0 0.00225817
0.00421743 0.0282356 0 0.000252126
0.000517536 0.00330043 0 0.0017205
7.86006e-005 0.00301308 0 0.0267263
-0.00150253 0.0233222 0 0.000484
3.50244e-005 0.00343033 0 0.00431596