# T  FACE_DATA 23640
#  x  y  z  T
-0.00296834 0.0159323 0 93.4173
0.000794309 0.0100339 0 87.5369
0.00690979 0.0130745 0 259.765
0.000158008 0.0018211 0 292.605
-0.000662165 0.0113619 0 87.7503
-0.00203768 0.00587959 0 204.452
-0.000220137 0.00748479 0 70.0799
0.00214531 0.0125841 0 129.117
-0.00164167 0.00702341 0 109.956
0.00020958 0.00306993 0 163.202
4.59799e-005 0.00273939 0 273.077
0.00075606 0.00524313 0 81.6371
0.00107075 0.0257944 0 79.5073
-0.000458708 0.0115994 0 84.8844
-0.000900467 0.00350322 0 223.758
-0.00222355 0.00655891 0 208.679
0.00442703 0.0182294 0 84.9201
7.09705e-005 0.00299924 0 246.063
-2.45517e-005 0.00292714 0 262.503
-0.000543852 0.00394831 0 101.76
7.98376e-005 0.00283498 0 269.823
0.00510868 0.0124654 0 208.163
7.37866e-005 0.00284217 0 269.403
-0.000122136 0.00287943 0 270.052
0.00117211 0.0120328 0 93.8767
0.000340217 0.00636002 0 76.7952
-1.62375e-005 0.00331413 0 156.485
0.000288499 0.00391811 0 109.178
0.00604323 0.0215883 0 75.744
0.0015748 0.0199438 0 95.044
0.000642306 0.0286533 0 74.6477
-0.000788091 0.000235815 0 299.965
8.45076e-005 0.00283429 0 269.922
-0.000766033 0.00453527 0 88.4675
-0.000556446 0.00360452 0 106.77
-0.000694613 0.00330261 0 229.613
0.00425461 0.0181246 0 85.722
0.00563158 0.0299784 0 71.1627
0.00374311 0.0125452 0 164.04
-0.000168184 0.00269727 0 274.932
0.00100487 0.00483203 0 85.282
-0.00170325 0.00704586 0 110.733
-0.00047461 0.0123053 0 85.4311
-0.00401905 0.0129379 0 151.215
0.000128446 0.00148328 0 297.061
0.000108141 0.00315803 0 171.787
0.00299545 0.0176096 0 86.991
0.00122698 0.00708374 0 87.7785
0.000214903 0.00307399 0 160.647
0.00225142 0.0126586 0 134.723
0.000204708 0.00068009 0 299.652
4.25297e-005 0.00299727 0 248.741
-0.000477288 0.00315875 0 220.313
-0.00378992 0.02149 0 73.6857
0.000139812 0.00181138 0 292.796
0.000208917 0.00302796 0 234.397
-0.00160791 0.0049468 0 161.027
0.000941143 0.00995448 0 90.8645
8.9442e-006 0.010956 0 62.7603
-0.000434056 0.00133506 0 297.951
0.000566946 0.0289715 0 73.8255
-7.40414e-005 0.003214 0 169.321
-0.000145493 0.00239699 0 280.689
3.42483e-005 0.00298986 0 251.258
0.000575544 0.00987125 0 68.0515
3.71363e-005 0.00299095 0 250.89
-0.00247102 0.00772987 0 201.728
0.00096928 0.0118325 0 91.6355
-9.22697e-005 0.00299969 0 241.014
-0.000570617 0.0122505 0 86.1702
-0.000211411 0.00254812 0 277.745
-0.000765289 0.00457715 0 88.3254
8.13068e-005 0.00294139 0 262.46
-0.00437678 0.0203082 0 76.5771
0.00226862 0.00661101 0 205.819
-0.000832194 0.000220534 0 299.969
-0.000164868 0.00301134 0 240.524
0.0012393 0.0259768 0 78.8927
-2.48279e-005 0.00292318 0 262.949
0.000116572 0.00245177 0 279.596
9.77655e-005 0.00313112 0 179.428
0.000279024 0.00328636 0 129.973
-5.75605e-005 0.0116355 0 77.2389
-7.47936e-005 0.0117342 0 77.4668
0.000518168 0.00993111 0 66.1608
-0.000154608 0.0030256 0 211.465
4.53443e-005 0.00299839 0 248.256
-0.000161071 0.0027724 0 273.917
0.000104836 0.00293916 0 265.814
-0.00100104 0.00361077 0 227.166
-0.000510005 0.00921774 0 65.5576
0.00100295 0.0100141 0 91.0972
-0.000646084 0.00336418 0 159.953
6.96906e-005 0.00293287 0 262.839
-1.67264e-005 0.00300289 0 247.671
0.000173509 0.0227352 0 88.706
3.17037e-005 0.00298455 0 252.685
0.000312244 0.00306502 0 232.723
-0.00212604 0.00906512 0 120.252
-0.00049218 0.00322389 0 167.736
0.000341345 0.00323843 0 123.647
-0.00385942 0.0216496 0 73.7712
-0.000125834 0.0028813 0 271.118
0.00524627 0.0255212 0 83.8271
0.000713781 0.0036837 0 106.412
0.00601727 0.0299149 0 71.7858
-0.000344095 0.00203632 0 287.757
-0.0047341 0.0239481 0 80.2646
-0.000460773 0.00539436 0 82.6379
-0.00196148 0.00905338 0 111.689
0.00143807 0.0303782 0 71.7074
7.94637e-005 0.00293894 0 262.644
0.00013473 0.00481908 0 91.2336
0.00105264 0.00484794 0 87.5834
0.000112877 0.0030262 0 170.832
-0.00781161 0.0282885 0 75.2836
-0.000846622 0.00344471 0 226.561
-0.00206201 0.0306837 0 71.1106
-0.00313594 0.0160362 0 93.322
0.00144289 0.0198776 0 95.3808
-0.000135136 0.00286502 0 271.915
-0.000205101 0.000950881 0 299.498
0.000372212 0.00308853 0 232.509
0.000370404 0.000795868 0 299.648
0.000201681 0.00347815 0 129.916
-0.000147808 0.00278598 0 273.191
0.000218103 0.000637733 0 299.663
0.000195722 0.00313377 0 143.224
-0.00203813 0.00594128 0 200.263
0.00112067 0.00510142 0 88.1647
5.16573e-005 0.00373385 0 120.483
0.000381501 0.00336875 0 117.871
0.000860715 0.0258401 0 80.2604
-0.000116556 0.00339842 0 140.996
-0.00513668 0.0257477 0 79.6684
-0.000162894 0.00277847 0 273.969
8.27341e-005 0.00277738 0 271.987
0.0010674 0.0118759 0 92.7696
-4.09992e-005 0.00275121 0 272.716
3.29665e-005 0.00297369 0 255.244
-0.00204547 0.0090065 0 115.666
-0.00160474 0.0048986 0 167.581
8.25825e-005 0.00294819 0 261.68
4.00473e-005 0.00273627 0 273.169
-9.41642e-005 0.00295571 0 262.208
0.00150619 0.00997327 0 100.232
8.22134e-005 0.00268838 0 274.509
-0.000160791 0.00267895 0 274.992
-0.000596112 0.00909085 0 66.7668
-9.31423e-005 0.00299701 0 247.634
0.00235681 0.0126226 0 142.78
0.00203765 0.00557212 0 226.205
-0.000165794 0.0115731 0 76.9151
6.0159e-005 0.0021996 0 285.124
0.000371981 0.00362464 0 114.236
-0.00733688 0.029685 0 72.1774
-0.000180414 0.00743151 0 70.1421
-0.000357207 0.004885 0 88.4445
0.00253943 0.00813968 0 206.061
-1.29377e-005 0.00332967 0 155.102
-0.0010235 0.00361199 0 231.983
-0.000285329 0.0030748 0 211.95
-0.000681311 0.00329291 0 227.301
-0.00260727 0.00895038 0 196.764
0.00788717 0.0276195 0 76.7588
0.0089704 0.0287411 0 75.1883
-0.000270534 0.00232157 0 281.877
-0.00014416 0.00312601 0 160.85
-0.000337662 0.00201762 0 288.202
0.0003962 0.00337513 0 117.421
0.00121317 0.00701782 0 86.9297
0.000116206 0.00302915 0 170.294
0.00225197 0.00666935 0 199.907
-0.000507665 0.00548922 0 81.7063
-0.000231863 0.00226746 0 283.199
0.000244361 0.00226851 0 283.143
0.00111028 0.00505498 0 87.687
0.000121223 0.00304184 0 165.658
0.00012049 0.00243938 0 279.852
-0.0013386 0.0186068 0 97.1371
0.000102064 0.00149733 0 296.942
0.000147362 0.00301363 0 229.419
0.00106981 0.0119939 0 92.5937
-0.000365953 0.00411169 0 102.095
0.00557444 0.020358 0 79.5707
4.86089e-005 0.00307386 0 213.864
-0.000177413 0.0035472 0 127.316
-0.000632994 0.00339325 0 139.095
0.000487307 0.00130985 0 298.058
-0.000349424 0.00402777 0 104.399
-0.00177251 0.00629586 0 122.429
-7.92525e-005 0.00273084 0 273.398
0.000241714 0.00100077 0 299.418
-0.000154516 0.0114773 0 76.814
0.00502442 0.0222916 0 74.3078
-0.000166546 0.00272686 0 274.545
0.000707598 0.00365891 0 107.79
-0.00157418 0.0046046 0 205.977
0.000122725 0.00301099 0 214.311
0.000172305 0.00324558 0 148.059
7.46185e-006 0.00286175 0 267.909
0.00533293 0.0140838 0 145.194
0.00520504 0.0284215 0 73.666
-0.00170266 0.00713636 0 110.854
4.38765e-005 0.00290514 0 264.978
0.00035679 0.0099507 0 62.3073
0.000120447 0.00300871 0 217.763
7.85992e-005 0.00284146 0 269.507
0.000146556 0.00306157 0 152.633
-0.000265484 0.00230758 0 282.2
-0.000558184 0.0114136 0 86.3654
0.000873988 0.011905 0 90.3467
0.00195145 0.0157285 0 95.2839
0.000415959 0.00988952 0 63.0506
0.00204861 0.00551694 0 235.89
0.00159497 0.00893937 0 101.712
0.00125366 0.00690066 0 92.0615
-0.000537482 0.00397822 0 100.789
-0.00245206 0.00890865 0 160.893
-0.00591638 0.015069 0 123.386
0.00182541 0.0157696 0 94.3827
-6.39179e-005 0.00274368 0 272.96
1.24162e-005 0.00286011 0 268.019
0.000785526 0.00520879 0 81.8367
0.000119132 0.00288179 0 269.387
0.000107617 0.00492998 0 90.142
-0.000398708 0.00617064 0 76.5904
-0.00031795 0.000861625 0 299.596
-0.0054742 0.0145195 0 126.966
-0.00050603 0.0093045 0 65.7768
-0.00281713 0.0160093 0 92.2199
-0.00521587 0.0225645 0 71.6206
0.000631138 0.00410172 0 97.0277
0.00077675 0.0118594 0 88.7147
-0.000339893 0.00491785 0 88.0768
0.000278502 0.0033019 0 129.443
-0.000206291 0.0025551 0 277.568
0.0015782 0.00885327 0 101.513
-0.000601058 0.00917374 0 67.2709
0.000107852 0.00308374 0 181.117
0.000329157 0.00324408 0 124.816
-0.000107456 0.0030138 0 191.743
0.000995869 0.00478803 0 85.7139
-0.00176263 0.00715431 0 111.958
0.000133123 0.00190024 0 291.244
0.00428452 0.0222831 0 75.5541
0.00249322 0.0134845 0 122.339
0.000209201 0.00303326 0 228.604
1.124e-005 0.00241342 0 280.508
-0.000138897 0.00282521 0 272.25
-0.000422518 0.00130967 0 298.143
0.000897928 0.00602889 0 76.9071
0.00296246 0.0177704 0 86.7664
-0.000240922 0.0022558 0 283.409
0.000161456 0.0106342 0 61.4122
-0.000169117 0.00269067 0 274.973
-0.00600599 0.0132277 0 211.044
-0.00498542 0.0226529 0 70.7813
0.00035646 0.00189436 0 290.656
0.000360867 0.00193124 0 289.909
0.000188008 0.00159518 0 295.84
0.00315697 0.0294361 0 72.8733
0.000380728 0.00331446 0 119.017
-0.000407732 0.00541329 0 82.2387
0.00599218 0.0187772 0 81.3877
-0.000475668 0.0124289 0 85.5414
9.243e-005 0.00339173 0 144.556
-0.0022067 0.00902531 0 128.033
0.000138287 0.010546 0 61.2155
-4.59787e-005 0.00300592 0 245.206
0.000475334 0.00325723 0 139.663
0.0081269 0.0233608 0 69.5211
-0.000136448 0.00286953 0 272.707
0.000465099 0.00132931 0 297.97
0.000196949 0.00312437 0 142.8
-0.000725979 0.00459524 0 89.4407
0.00566025 0.0201173 0 80.1091
-0.000237093 0.000937504 0 299.515
-7.15727e-006 0.00298867 0 251.732
-0.000556128 0.00552312 0 81.1344
-0.000151452 0.00278159 0 273.396
0.00604583 0.0167381 0 92.6457
5.44524e-005 0.00307484 0 211.865
3.5211e-005 0.00270778 0 273.958
-0.00210731 0.0068781 0 158.956
8.91266e-005 0.00319599 0 170.698
-0.00242079 0.00974735 0 156.741
0.00135885 0.00413507 0 222.867
-0.00108228 0.00797081 0 84.1458
3.29303e-005 0.00271504 0 273.761
-0.000508078 0.0208168 0 96.1896
-0.00472826 0.0198065 0 78.8378
0.00152826 0.0090827 0 99.8102
-0.00252462 0.00897287 0 177.384
-4.09377e-005 0.0027578 0 272.491
-0.00186927 0.0116808 0 110.425
0.00108447 0.00518193 0 84.2485
-0.00419392 0.0202211 0 77.0583
0.000296615 0.00594885 0 79.8252
0.00365557 0.0156923 0 98.8251
-0.000138643 0.00311989 0 163.199
3.44704e-005 0.00298593 0 252.302
-0.000249911 0.000891772 0 299.565
0.00110337 0.0099601 0 92.8964
8.04689e-005 0.00279643 0 271.322
0.00779157 0.0249956 0 68.9134
0.000351464 0.00337107 0 120.737
-0.00012879 0.00323538 0 157.079
0.000155895 0.00168996 0 294.647
8.56943e-005 0.00294739 0 262.056
0.0053023 0.0238774 0 74.7219
0.000238423 0.00318026 0 135.421
0.000230406 0.00226533 0 283.28
-5.15866e-005 0.00292996 0 262.594
2.57476e-005 0.00286927 0 267.491
0.000105066 0.00340141 0 142.59
-0.0006343 0.00341198 0 133.867
-0.00683177 0.0130924 0 251.408
-1.54609e-005 0.00299907 0 248.816
-0.00215958 0.00656839 0 190.732
0.00301179 0.0141363 0 110.969
-0.000723924 0.00463742 0 89.0602
-0.000555458 0.00358088 0 107.56
0.000287933 0.00394954 0 108.694
-0.00525881 0.0259389 0 79.2447
-0.000235386 0.00314485 0 136.153
-0.000664883 0.00104525 0 298.977
0.00182857 0.0107598 0 109.617
0.00289308 0.0133881 0 125.668
0.000556851 0.000459359 0 299.912
-6.31462e-005 0.00306344 0 212.942
0.00204396 0.0126442 0 125.28
-0.000369072 0.00408052 0 102.899
-0.00018247 0.00378321 0 116.003
0.000579156 0.0162179 0 108.845
0.00117061 0.0100074 0 93.2939
0.000129771 0.00301154 0 220.968
0.00050022 0.00329429 0 132.605
-0.00194273 0.0117557 0 112.886
0.000295066 0.00600891 0 79.5901
-0.000154748 0.0030213 0 222.885
8.51353e-005 0.00297491 0 257.355
0.000370749 0.00364798 0 113.594
0.00032381 0.000892659 0 299.562
-0.000114683 0.00273658 0 273.389
7.10543e-005 0.0030026 0 244.161
-9.6647e-005 0.00324264 0 161.339
0.000733896 0.00537107 0 82.217
0.000155197 0.00494735 0 89.2543
0.000610019 0.00412319 0 97.1412
0.000353717 0.00194986 0 289.626
-0.000244432 0.00314026 0 135.717
-0.00502653 0.0232658 0 70.207
-0.00178789 0.0309983 0 70.6426
-0.000579723 0.00361754 0 106.295
0.00813841 0.0273314 0 70.5694
-0.002496 0.0131044 0 126.984
-0.00431729 0.0290645 0 72.536
-0.000157683 0.00240005 0 280.59
-6.09633e-005 0.00273787 0 273.153
-0.000172602 0.00356894 0 125.87
5.95493e-005 0.00280503 0 270.871
3.59382e-005 0.00297531 0 254.898
0.0038221 0.0156522 0 98.5187
0.00151814 0.00899556 0 100.083
0.00891208 0.0209237 0 83.3604
0.00932881 0.0247628 0 69.3906
0.000401147 0.00319889 0 143.709
-1.37134e-005 0.00292236 0 262.975
-0.00149883 0.0199029 0 95.6078
-0.000151382 0.00307642 0 153.471
-9.99299e-005 0.00297786 0 261.934
0.00528439 0.0241343 0 76.5368
2.61097e-005 0.00286432 0 267.801
0.000206875 0.00349712 0 129.033
-0.00509797 0.0234717 0 70.525
-0.000597722 0.000953511 0 299.398
-0.00793898 0.0155863 0 182.507
0.00183935 0.0106624 0 109.346
7.52069e-005 0.00339368 0 145.039
-7.77056e-005 0.00294222 0 262.051
-9.8985e-005 0.00297992 0 261.502
0.00161823 0.00911669 0 101.656
8.21842e-005 0.00297527 0 256.804
-0.00188133 0.00900925 0 108.666
-0.00617827 0.0275965 0 75.9694
-0.000490092 0.00321051 0 179.98
0.00945115 0.0288751 0 74.4991
-0.00016434 0.00272067 0 274.561
-0.00797941 0.0222445 0 70.7837
-4.01564e-005 0.00301654 0 241.593
-0.00180498 0.00506765 0 219.445
-0.000161305 0.00301261 0 239.707
-0.000482063 0.00316965 0 213.131
-0.000942791 0.00378901 0 136.139
-0.000134053 0.00282435 0 271.81
0.000242746 0.000963685 0 299.476
0.00525461 0.0274919 0 76.6737
0.00306352 0.0179257 0 86.0602
-0.000120066 0.00324295 0 157.639
-0.00319507 0.0125029 0 148.529
-0.000290892 0.00233844 0 281.685
0.00159844 0.00482417 0 177.518
0.00787978 0.0236538 0 69.1895
0.00145057 0.0259009 0 80.0171
-0.000336257 0.00619409 0 76.6597
-0.000333917 0.00172186 0 293.845
0.00577509 0.0216659 0 75.3082
0.000667048 0.00332313 0 202.619
0.00248969 0.00807562 0 196.413
-0.00160944 0.00467215 0 206.975
1.98969e-005 0.00242157 0 280.334
0.000286635 0.0021356 0 285.942
-0.00161117 0.00618199 0 114.995
7.54635e-005 0.00268391 0 274.613
0.00101663 0.00497361 0 83.7973
9.78423e-005 0.00320089 0 168.036
-0.000282098 0.0245537 0 83.06
0.00160534 0.0053807 0 128.465
0.000645555 0.00426047 0 94.4849
0.000344665 0.00191282 0 290.343
-4.37224e-005 0.0030135 0 242.441
0.000410526 0.00592784 0 79.1183
-0.00161438 0.00462874 0 215.486
0.000197339 0.00307463 0 151.797
-0.00787948 0.0250527 0 68.4309
0.000365567 0.000836364 0 299.617
0.000428529 0.0031113 0 235.605
6.29689e-005 0.00280138 0 271.003
-0.00260928 0.0115127 0 175.622
0.00511854 0.0182191 0 82.992
-0.000191506 0.0013612 0 297.995
0.000255298 0.00234631 0 281.517
7.80872e-005 0.00285378 0 268.924
-6.93966e-006 0.00361778 0 128.121
-0.000112834 0.00273034 0 273.542
-0.000151306 0.00308356 0 153.485
0.000794921 0.00339323 0 224.404
0.000120559 0.00308016 0 173.892
-0.00060963 0.000994212 0 299.275
-0.000187211 0.00375918 0 116.953
-0.000179749 0.00239602 0 280.622
0.000583853 0.00320912 0 232.432
-0.000220391 0.00307379 0 167.558
-3.20721e-005 0.00313154 0 196.947
-0.00240166 0.00829286 0 170.257
-0.000107553 0.0032363 0 160.535
0.000485775 0.00324734 0 150.009
-1.6528e-005 0.00283252 0 269.511
0.000388916 0.00319175 0 143.003
-0.000191501 0.000101552 0 299.96
-0.00244196 0.00780076 0 194.739
-0.000237142 0.00223825 0 283.822
-0.00179252 0.00511195 0 210.483
7.86645e-005 0.00300926 0 235.743
-0.00578012 0.0268724 0 76.4889
-0.00101007 0.00801211 0 77.6121
0.000363332 0.00337974 0 120.065
0.000391279 0.00186159 0 291.101
0.000433244 0.00317308 0 185.629
0.00161612 0.00543442 0 127.231
-0.00207993 0.00693738 0 151.932
0.000483914 0.00474879 0 90.7075
0.000802557 6.40842e-005 0 300.001
0.00066144 0.00330597 0 211.863
0.00141767 0.0197289 0 95.4521
-0.000651775 0.00329699 0 208.493
0.000282152 0.00304241 0 239.654
-0.000357054 0.00319624 0 132.274
-0.00178284 0.00623412 0 125.02
3.8992e-005 0.00380209 0 118.322
-0.00100109 0.0210667 0 93.7774
0.000165033 0.00158259 0 296.013
0.00864187 0.0174253 0 150.298
0.00315453 0.0128329 0 140.188
-8.64597e-005 0.00318341 0 172.87
-0.000259494 0.0126492 0 87.8259
0.000466396 0.000355167 0 299.935
0.000246728 0.00318708 0 133.967
-0.000724122 0.000493878 0 299.806
-0.00236534 0.0089472 0 146.557
-0.00585899 0.0184819 0 83.2459
-0.000109395 0.00425783 0 101.794
-0.000225082 0.00307869 0 164.414
0.00116126 0.00383867 0 223.33
0.000146244 0.00305529 0 152.681
0.000106639 0.00285591 0 269.512
0.00516349 0.0142403 0 130.022
-0.000547118 0.0281975 0 76.0554
-0.00314055 0.0188201 0 78.8307
6.39205e-005 0.0034062 0 143.874
0.000746714 0.00049437 0 299.923
0.00226648 0.0258744 0 78.5217
-0.000137355 0.00283875 0 272.084
0.00173233 0.0108179 0 105.941
-0.000334456 0.00625618 0 76.5075
-0.000652252 0.00338145 0 153.525
-6.89277e-005 0.00306466 0 210.294
0.000126795 0.00304178 0 162.448
0.00478399 0.0277755 0 74.8465
0.000516287 0.0229306 0 88.0429
5.89116e-005 0.00254342 0 277.759
-0.00795861 0.0246948 0 68.7966
0.00133689 0.00999394 0 96.1985
-0.000118825 0.0220921 0 91.6953
6.34909e-005 0.0107046 0 61.5933
-0.000946741 0.00381309 0 133.577
0.00581241 0.0241952 0 71.5779
-0.00487736 0.01991 0 78.6786
0.00170829 0.0256098 0 80.447
9.98067e-005 0.00316224 0 173.384
0.00308063 0.0142797 0 109.998
-0.000279242 0.00307977 0 201.342
-0.000183934 0.00303725 0 209.726
7.83288e-005 0.00286324 0 268.404
-0.000440884 0.00514493 0 85.0836
0.000455558 0.00477565 0 90.2487
0.00520625 0.0221693 0 74.3753
-0.00179507 0.00722781 0 113.438
5.54873e-005 0.00266826 0 274.995
-0.00157971 0.00456195 0 214.235
4.18607e-005 0.00302762 0 236.666
-0.000194972 5.19224e-005 0 299.991
-0.000846289 0.00342394 0 234.277
-0.00105965 0.00823661 0 85.1713
0.000163413 0.00479131 0 91.5215
-8.2874e-005 0.00288534 0 267.242
0.00157378 0.00552232 0 121.259
-7.66839e-005 0.00293931 0 262.363
0.000101978 0.0109948 0 63.6183
-0.000363872 0.00601296 0 77.8368
0.000117978 0.00287815 0 269.442
0.000219153 0.00318835 0 138.332
-0.00163196 0.00449872 0 231.943
-0.000221409 0.00303399 0 236.355
-0.000370966 0.0244074 0 83.7459
-0.000466554 0.00315829 0 214.994
0.000396164 0.00331941 0 118.323
-0.00482666 0.0238063 0 76.2726
0.00133411 0.00522841 0 111.427
-0.00267568 0.00982141 0 204.203
-0.000480207 0.0219659 0 91.7361
0.00177473 0.0106071 0 107.218
0.000428512 0.00597987 0 79.054
0.00330832 0.0202369 0 79.019
-0.00036699 0.012473 0 85.6786
-0.000901486 0.00347959 0 232.946
-9.70158e-005 0.00294708 0 263.523
-0.00110466 0.0144253 0 93.8252
-0.00107199 0.0143087 0 93.7019
0.000113095 0.0030798 0 178.18
0.000776547 0.0117402 0 88.3183
-0.000196596 0.00302496 0 238.218
-0.00581483 0.0148124 0 128.779
0.000125326 0.00308478 0 170.974
-0.00172589 0.0230235 0 86.5441
-0.00123798 0.0114294 0 93.1506
-0.000106038 0.00301072 0 194.861
7.68012e-005 0.00277918 0 271.894
-0.000218387 0.00226751 0 283.247
0.00288382 0.0120736 0 188.036
0.000136685 0.00272066 0 274.031
0.00126396 0.00994364 0 94.8833
0.000169734 0.00323168 0 149.325
3.33298e-005 0.00296283 0 257.443
7.38909e-005 0.00285244 0 268.918
0.00226662 0.00684142 0 192.444
-4.80444e-005 0.00288948 0 266.275
0.000117291 0.00304527 0 168.359
0.00044057 0.00316393 0 200.471
0.00025781 0.000139806 0 299.959
-0.000553437 0.0115383 0 86.1928
0.00174054 0.0109254 0 106.679
-0.00657824 0.0304887 0 69.5495
-0.00287878 0.0309438 0 70.7761
-1.74214e-005 0.00292383 0 262.83
0.000417861 0.00311152 0 232.724
-0.000158816 0.00302837 0 207.78
0.000540608 0.00339996 0 116.457
0.00322243 0.0179545 0 86.2363
-0.000159371 0.0013528 0 298.067
0.000126077 0.0159893 0 113.485
-0.00432652 0.0294311 0 72.408
0.0015673 0.00546801 0 120.98
-5.0904e-005 0.00292621 0 262.989
-0.000106737 0.00293051 0 266.631
0.00275932 0.0110589 0 198.248
0.000556951 0.00340784 0 117.097
0.000399007 0.0063813 0 76.1812
-4.55764e-005 0.00288684 0 266.433
5.78688e-005 0.00240298 0 280.7
-0.00135948 0.0128543 0 97.7573
0.00105587 0.00489705 0 86.0088
-0.00180772 0.00736401 0 112.827
8.62884e-005 0.0107917 0 61.7581
-1.73838e-005 0.00299616 0 249.652
-0.000559779 0.00402893 0 99.4385
-0.000129894 0.00339006 0 140.66
-0.00108645 0.0209701 0 94.2587
-0.000355289 0.00318516 0 135.881
6.75287e-005 0.00268766 0 274.507
-1.6399e-005 0.00282695 0 269.776
0.000375645 0.00184967 0 291.434
0.000226595 0.00318087 0 137.527
-0.00157723 0.0197887 0 95.7129
0.000153682 0.00302297 0 211.934
-0.000983791 0.00376429 0 151.701
0.00320404 0.0139037 0 116.789
-0.000399729 0.0051532 0 86.0146
-8.43671e-005 0.0028893 0 267.03
0.00153091 0.0204307 0 93.7458
0.0023948 0.0125217 0 143.678
0.000662239 0.00525468 0 83.5761
-0.00103759 0.0179087 0 100.33
-0.00194218 0.00558429 0 203.822
-0.000960129 0.00376594 0 144.476
-0.000309837 0.00306474 0 232.357
0.00162461 0.00920594 0 101.847
0.00346181 0.0203111 0 78.6409
0.000412094 0.000782235 0 299.665
4.10836e-005 0.00290739 0 264.727
0.00107752 0.00513333 0 84.3722
-0.00139776 0.00696247 0 103.911
5.83714e-005 0.0023895 0 280.988
0.000501828 0.0119171 0 85.8292
-2.97555e-005 0.00300349 0 247.087
0.00113092 0.00612109 0 79.861
3.11664e-005 0.00285722 0 268.245
-0.000756348 0.0223669 0 89.8453
0.000606022 0.00322532 0 232.176
0.00858419 0.0213223 0 78.287
0.00228739 0.00873166 0 144.395
-0.00330691 0.0124678 0 154.896
-0.00135503 0.018735 0 97.5699
-0.00782909 0.0173425 0 114.716
0.000179373 0.00168518 0 294.685
0.000181353 0.0228576 0 88.6793
0.00116853 0.00608209 0 82.1761
0.00534216 0.0272787 0 77.6906
0.000808836 0.00340365 0 225.973
-0.00176706 0.00728799 0 112.416
0.000366125 0.00308127 0 234.925
0.000142062 0.00271694 0 274.182
0.000456136 0.0264018 0 79.383
0.000149779 0.00301624 0 225.788
8.09965e-005 0.015903 0 113.614
3.07264e-005 0.00286231 0 267.944
-0.000148146 0.00339011 0 139.595
-0.0064378 0.0277565 0 75.8734
0.00072806 0.00532362 0 82.1757
-0.00065633 0.00335203 0 174.204
-0.000360464 0.000878987 0 299.582
-9.67537e-005 0.00295742 0 262.555
-0.000484113 0.00948683 0 66.3391
-0.000565445 0.00399845 0 100.113
0.000588623 0.00111811 0 298.904
0.000130395 0.00304539 0 158.629
0.000107754 0.00285149 0 269.741
0.00165731 0.0250536 0 81.3306
0.00285988 0.0119675 0 197.453
-9.54028e-005 0.00428588 0 101.339
-0.000124414 0.00317156 0 165.706
-0.00814733 0.0285856 0 74.9479
-0.000216377 0.0031251 0 138.966
0.00549751 0.012219 0 226.604
-0.00550796 0.012201 0 225.151
0.00287309 0.0132504 0 126.964
0.000396043 0.00090361 0 299.55
-9.96587e-005 0.00294535 0 264.303
-0.00215947 0.00674928 0 181.596
-0.000289559 0.000893856 0 299.564
0.00184728 0.00894591 0 111.907
-0.000404895 0.00611192 0 76.6812
-0.00085135 0.00350535 0 198.832
3.34633e-006 0.00298331 0 253.05
0.00378526 0.0199019 0 81.0545
-0.000528492 0.024373 0 84.3526
-0.000842118 0.0116133 0 89.2473
-0.00298148 0.0188909 0 78.1216
5.9556e-005 0.0025331 0 277.977
-0.000468824 0.00121303 0 298.636
9.1581e-005 0.0171817 0 112.043
-0.00127026 0.0113439 0 93.674
0.00402234 0.0130084 0 144.482
-0.000363163 0.00496329 0 87.9523
-0.00609252 0.0268039 0 78.4423
0.000283831 0.00172705 0 293.888
-0.000884834 0.00452052 0 87.9946
0.000104251 0.00312707 0 177.79
0.00028648 0.000908897 0 299.544
0.00627587 0.0218045 0 75.1396
0.000138189 0.00301242 0 225.775
-8.45766e-005 0.00300744 0 234.628
-0.000367296 0.0115469 0 82.5567
4.43738e-005 0.00303088 0 234.785
0.00481648 0.0179238 0 84.5568
0.00149749 0.00436073 0 222.009
0.00128386 0.00510424 0 110.696
-0.000137123 0.00279496 0 272.515
0.00010392 0.0048879 0 90.3797
-0.00091848 7.16259e-005 0 300
3.54985e-006 0.00298714 0 252.136
0.000749152 0.00426831 0 92.6044
-0.000130195 0.00286367 0 271.095
0.00513916 0.0264131 0 80.709
-0.00145383 0.00693267 0 106.103
-0.000170314 0.00271408 0 274.719
0.000708754 0.00344963 0 146.31
0.000173403 0.0026398 0 275.822
0.00102924 0.00397184 0 127.768
7.04719e-005 0.00292897 0 263.293
-0.000154347 0.00277069 0 273.502
0.000152777 0.00306484 0 151.734
-0.0057264 0.0155753 0 104.547
-0.00516063 0.0124211 0 209.634
-0.000727401 0.00332353 0 231.176
0.00177507 0.00499121 0 214.821
-0.00104148 0.00729487 0 74.8219
8.03056e-005 0.00285902 0 268.652
0.000619507 0.00322392 0 236.222
0.000491741 0.00344599 0 112.249
-8.64345e-005 0.00319528 0 170.804
0.000495863 0.00327729 0 137.67
0.00629165 0.0165428 0 99.0285
-0.000348261 0.00373379 0 112.05
0.00695359 0.012557 0 278.369
-0.00614658 0.0186042 0 82.1203
0.00446424 0.0221677 0 74.6543
-0.000789844 0.00391708 0 98.1601
0.000117774 0.00196522 0 290.015
-0.000255362 0.0148691 0 111.377
-0.00503812 0.0284552 0 73.1656
-0.000107009 0.00253653 0 277.876
0.000146628 0.00274959 0 273.684
0.00773255 0.0309094 0 72.0289
0.000159147 0.00499252 0 89.0428
0.000514649 0.00313677 0 240.484
0.00101358 0.00492618 0 84.325
-0.00010231 0.00251506 0 278.315
-0.000149253 0.0149017 0 112.132
-0.0026764 0.0106555 0 187.959
-0.000401914 0.00497223 0 86.9481
-9.9778e-005 0.00250395 0 278.551
-0.000167489 0.00307565 0 149.075
0.00547148 0.0254757 0 84.6245
6.86885e-005 0.00304125 0 220.355
-0.00443178 0.028435 0 73.282
-9.60567e-005 0.00299261 0 255.115
0.00605816 0.0243911 0 71.0799
-0.00166852 0.0218177 0 90.0721
3.51271e-005 0.00306949 0 218.933
0.00934401 0.0252145 0 68.2838
0.000689131 0.0161709 0 105.077
-0.00185288 0.0231304 0 85.8095
-0.000635695 0.0147353 0 97.8335
0.000424951 0.000378919 0 299.903
3.11571e-005 0.00341221 0 143.986
-0.00451594 0.0239154 0 82.7159
4.55634e-005 0.00300278 0 246.703
-0.000190882 0.0026229 0 276.349
-0.00293428 0.0314144 0 70.7768
0.000192455 0.0109275 0 64.6407
-7.99306e-005 0.00301235 0 232.571
-0.000103784 0.019352 0 102.833
0.000298059 0.00179298 0 292.773
0.000318272 0.00306073 0 236.727
4.79498e-005 0.00267219 0 274.908
0.000550505 0.00439983 0 93.9313
-6.64966e-005 0.00296368 0 258.001
-0.000353929 0.0037557 0 111.518
0.00136689 0.00417221 0 217.255
0.000288631 0.0043673 0 98.6091
-0.000116817 0.00316526 0 168.514
0.000228982 0.00477361 0 91.359
-0.00010849 0.00292752 0 267.062
0.00158742 0.0252298 0 81.202
0.00029744 0.00214644 0 285.624
0.00012001 0.0179918 0 109.506
-2.8464e-005 0.00302556 0 239.221
-0.000121369 0.00301027 0 220.675
-0.000613293 0.003423 0 125.023
0.000416492 0.000739339 0 299.694
0.00607599 0.0132862 0 220.014
-0.000118426 0.00301015 0 215.637
0.000338231 0.0030745 0 232.699
-0.000760719 0.00047075 0 299.815
-0.000159712 0.00339978 0 138.561
0.00621185 0.0259584 0 82.573
-0.000407926 0.00403608 0 102.257
5.21801e-005 0.0048277 0 91.7709
0.00820777 0.0174274 0 135.163
-0.000651027 0.00328042 0 220.644
-8.91944e-005 0.00296269 0 260.309
-0.000640908 0.0223311 0 90.032
0.00498206 0.0148716 0 107.397
-0.000133404 0.00280466 0 272.014
-0.00284514 0.0101497 0 215.933
0.00015129 0.00247549 0 279.049
0.0036537 0.0164932 0 94.1619
0.000170347 0.00269813 0 275.352
-0.00192463 0.00759706 0 118.728
-0.00146113 0.00452985 0 173.313
0.00164564 0.0109866 0 103.356
0.00153691 0.0307746 0 71.6592
0.000402223 0.00321336 0 137.195
-0.000561587 0.00118082 0 298.64
-0.00107178 0.00734408 0 75.7837
-4.6988e-005 0.00292472 0 263.069
0.000121356 0.00262665 0 275.975
-0.00180667 0.021881 0 89.321
-0.000301986 0.0030856 0 206.932
-0.000116548 0.00289513 0 269.087
0.000683718 0.0116885 0 86.9699
-0.000354426 0.00170815 0 293.999
0.000168525 0.00302989 0 207.618
0.0016288 0.00554363 0 125.502
-0.000454254 0.00780077 0 68.249
9.99188e-005 0.00299126 0 265.687
-0.000923631 0.00351832 0 227.555
-0.000513771 0.00531417 0 82.5383
-0.000134682 0.0174176 0 111.143
0.000245462 0.00302872 0 239.316
-0.00010594 0.00296983 0 267.737
0.000263028 0.00390471 0 110.395
0.000668464 0.00324245 0 238.973
-0.00016736 0.00267447 0 275.199
9.47415e-005 0.00371123 0 121.699
0.00421743 0.0282356 0 74.3119
0.000517536 0.00330043 0 134.594
7.86006e-005 0.00301308 0 232.803
-0.00150253 0.0233222 0 86.7379
3.50244e-005 0.00343033 0 142.851
0.00521285 0.0268086 0 79.2112
-2.25255e-005 0.00298419 0 252.727
0.000210866 0.0048041 0 90.9402
-0.00060708 0.0165096 0 109.138
0.00212885 0.0061951 0 204.28
-2.66592e-005 0.00312601 0 199.113
-0.00828018 0.0153779 0 200.704
-0.00170476 0.0244237 0 83.2141
-2.90915e-005 0.00298341 0 252.868
-0.00185381 0.0061466 0 135.742
3.45393e-006 0.00277635 0 271.825
0.00147734 0.00677235 0 104.89
0.00789347 0.0314466 0 71.2555
-0.00613399 0.0273266 0 76.9402
6.50073e-005 0.00218408 0 285.462
-0.00147779 0.0231807 0 86.7422
-0.000188401 0.00264524 0 276
-0.00075172 0.0114273 0 88.6097
0.00122718 0.0181316 0 97.9399
-0.000212778 0.0261997 0 79.723
-0.000849183 0.00348376 0 210.5
0.00262104 0.0134155 0 123.079
1.27232e-005 0.00293823 0 261.082
0.000154311 0.000143575 0 299.869
0.00227939 0.00864795 0 145.373
-0.000341661 0.00336084 0 122.394
-0.00187213 0.00737965 0 116.353
-0.000325102 0.00324186 0 124.632
0.00106283 0.00405371 0 126.259
0.00306202 0.0160229 0 95.3806
-0.00125502 0.0209796 0 94.0236
-0.000371653 0.00205944 0 287.219
-6.26965e-005 0.00321945 0 169.745
0.00162374 0.026075 0 79.2151
2.10167e-006 0.00278249 0 271.598
-0.0055484 0.0286456 0 72.8974
0.00015094 0.0013019 0 298.387
0.000698722 0.0033001 0 230.761
-0.000209116 0.00313022 0 140.026
0.000178301 0.00263421 0 276.012
-0.000170601 0.00241911 0 280.171
6.51233e-005 0.00278293 0 271.711
0.000796117 0.00012178 0 300
-0.00585119 0.020535 0 76.5081
-0.000609924 0.00122633 0 298.177
-0.000102624 0.00304973 0 187.374
0.00514232 0.0257801 0 82.5024
-0.00828702 0.0225688 0 70.677
-0.000614799 0.00344241 0 121.644
-0.00151189 0.0188183 0 95.0219
-3.25492e-005 0.0029848 0 252.48
0.00054607 0.027935 0 75.5425
-0.000162612 0.00307065 0 151.256
0.00170386 0.00536783 0 148.162
0.000122657 0.00246052 0 279.409
0.000114118 0.00372299 0 120.729
0.000279019 0.00175174 0 293.51
-0.00259204 0.0130168 0 130.585
0.0051502 0.0128645 0 196.571
-9.8562e-005 0.00342344 0 139.794
-0.000685127 0.00529569 0 82.5353
-0.000466511 0.00313725 0 231.327
0.000190709 0.00268308 0 276.093
0.000395417 0.00366064 0 112.182
0.000169582 0.00301879 0 231.122
-0.00265958 0.00992127 0 199.528
-0.00519759 0.0137459 0 149.727
-0.000114222 0.00289247 0 268.713
2.13384e-005 0.00287136 0 267.342
0.000112396 0.0030073 0 208.473
-0.000364131 0.0125976 0 85.9243
0.000638801 0.0281464 0 75.3582
-7.63196e-005 0.00301224 0 234.725
0.00647815 0.0133628 0 234.57
0.000321473 0.00338261 0 123.653
-0.00275906 0.0101546 0 208.039
-0.00198739 0.00761012 0 123.029
-0.00766429 0.0300439 0 71.6383
-0.000176722 0.00312882 0 148.948
-0.00800327 0.0218525 0 72.2345
0.00020237 0.00307009 0 158.129
-0.000414328 0.00346374 0 115.096
-0.000653425 0.00100717 0 299.137