# U  FACE_DATA 23640
#  x  y  z  U_x  U_y  U_z  
-0.00296834 0.0159323 0 -686.267 2382.16 0
0.000794309 0.0100339 0 -308.967 2670.68 0
0.00690979 0.0130745 0 439.025 347.48 0
0.000158008 0.0018211 0 -12.9034 91.3689 0
-0.000662165 0.0113619 0 436.555 2629.25 0
-0.00203768 0.00587959 0 -368.914 1314.66 0
-0.000220137 0.00748479 0 -139.662 2776.43 0
0.00214531 0.0125841 0 -193.538 2288.52 0
-0.00164167 0.00702341 0 -261.38 2477.51 0
0.00020958 0.00306993 0 1784.61 721.366 0
4.59799e-005 0.00273939 0 -34.9489 426.538 0
0.00075606 0.00524313 0 945.558 2531.58 0
0.00107075 0.0257944 0 284.082 2639.3 0
-0.000458708 0.0115994 0 462.917 2620.78 0
-0.000900467 0.00350322 0 -741.546 785.745 0
-0.00222355 0.00655891 0 -214.946 1206 0
0.00442703 0.0182294 0 1082.69 2385.65 0
7.09705e-005 0.00299924 0 -82.5034 1060.47 0
-2.45517e-005 0.00292714 0 42.3125 741.711 0
-0.000543852 0.00394831 0 -1404.79 2163.8 0
7.98376e-005 0.00283498 0 -85.7664 519.566 0
0.00510868 0.0124654 0 470.764 186.577 0
7.37866e-005 0.00284217 0 -82.8645 534.317 0
-0.000122136 0.00287943 0 130.994 472.293 0
0.00117211 0.0120328 0 -364.667 2557.61 0
0.000340217 0.00636002 0 295.244 2727.1 0
-1.62375e-005 0.00331413 0 -102.312 2129.31 0
0.000288499 0.00391811 0 801.539 2368.9 0
0.00604323 0.0215883 0 1225.27 2357.97 0
0.0015748 0.0199438 0 562.987 2462.74 0
0.000642306 0.0286533 0 141.181 2690.5 0
-0.000788091 0.000235815 0 -1.50158 0.175415 0
8.45076e-005 0.00283429 0 -89.9236 514.844 0
-0.000766033 0.00453527 0 -1296.39 2318.58 0
-0.000556446 0.00360452 0 -1784.15 1663.25 0
-0.000694613 0.00330261 0 -777.201 562.963 0
0.00425461 0.0181246 0 1041.34 2415.2 0
0.00563158 0.0299784 0 1059.89 2440.52 0
0.00374311 0.0125452 0 1151.98 578.969 0
-0.000168184 0.00269727 0 89.0041 324.303 0
0.00100487 0.00483203 0 1374.06 2300.99 0
-0.00170325 0.00704586 0 -257.116 2441.26 0
-0.00047461 0.0123053 0 490.525 2624.86 0
-0.00401905 0.0129379 0 -1378.12 834.344 0
0.000128446 0.00148328 0 -5.60625 47.2344 0
0.000108141 0.00315803 0 931.899 1709.12 0
0.00299545 0.0176096 0 584.328 2485.34 0
0.00122698 0.00708374 0 456.017 2639.71 0
0.000214903 0.00307399 0 1790.86 730.931 0
0.00225142 0.0126586 0 -113.658 2241.4 0
0.000204708 0.00068009 0 3.99553 7.04427 0
4.25297e-005 0.00299727 0 -52.0817 1030.65 0
-0.000477288 0.00315875 0 -964.5 513.928 0
-0.00378992 0.02149 0 -720.496 2563.06 0
0.000139812 0.00181138 0 -11.2536 89.046 0
0.000208917 0.00302796 0 533.569 125.274 0
-0.00160791 0.0049468 0 -708.092 1846.68 0
0.000941143 0.00995448 0 -278.92 2635.35 0
8.9442e-006 0.010956 0 65.7275 2833.12 0
-0.000434056 0.00133506 0 11.729 50.1835 0
0.000566946 0.0289715 0 104.704 2682.09 0
-7.40414e-005 0.003214 0 -583.368 1905.55 0
-0.000145493 0.00239699 0 40.1882 224.501 0
3.42483e-005 0.00298986 0 -51.8286 987.862 0
0.000575544 0.00987125 0 95.2602 2806.74 0
3.71363e-005 0.00299095 0 -55.1658 994.619 0
-0.00247102 0.00772987 0 -142.498 1153.84 0
0.00096928 0.0118325 0 -395.983 2553.67 0
-9.22697e-005 0.00299969 0 90.593 1100.66 0
-0.000570617 0.0122505 0 478.841 2631.8 0
-0.000211411 0.00254812 0 70.9728 246.036 0
-0.000765289 0.00457715 0 -1263.57 2368.87 0
8.13068e-005 0.00294139 0 -141.72 716.491 0
-0.00437678 0.0203082 0 -883.121 2461.19 0
0.00226862 0.00661101 0 324.368 1273.7 0
-0.000832194 0.000220534 0 -1.38443 0.940109 0
-0.000164868 0.00301134 0 -182.962 32.5901 0
0.0012393 0.0259768 0 315.974 2639.14 0
-2.48279e-005 0.00292318 0 42.5256 730.212 0
0.000116572 0.00245177 0 -36.238 244.669 0
9.77655e-005 0.00313112 0 858.357 1650.42 0
0.000279024 0.00328636 0 1669.93 1546.04 0
-5.75605e-005 0.0116355 0 284.423 2718.38 0
-7.47936e-005 0.0117342 0 286.723 2716.83 0
0.000518168 0.00993111 0 95.8326 2818.58 0
-0.000154608 0.0030256 0 -1227.18 363.89 0
4.53443e-005 0.00299839 0 -54.4304 1039.25 0
-0.000161071 0.0027724 0 85.5905 278.501 0
0.000104836 0.00293916 0 -161.615 604.566 0
-0.00100104 0.00361077 0 -691.454 741.223 0
-0.000510005 0.00921774 0 -176.613 2806.63 0
0.00100295 0.0100141 0 -278.755 2604.69 0
-0.000646084 0.00336418 0 -1562.29 1260.53 0
6.96906e-005 0.00293287 0 -119.641 715.303 0
-1.67264e-005 0.00300289 0 14.5652 1056.5 0
0.000173509 0.0227352 0 47.886 2610.24 0
3.17037e-005 0.00298455 0 -51.9026 960.482 0
0.000312244 0.00306502 0 614.812 212.741 0
-0.00212604 0.00906512 0 -86.3094 2340.09 0
-0.00049218 0.00322389 0 -1647.19 1025.3 0
0.000341345 0.00323843 0 1949.71 1195.38 0
-0.00385942 0.0216496 0 -720.082 2558.5 0
-0.000125834 0.0028813 0 130.028 433.426 0
0.00524627 0.0255212 0 1272.76 2359.83 0
0.000713781 0.0036837 0 1800 1657.84 0
0.00601727 0.0299149 0 1103.14 2408.4 0
-0.000344095 0.00203632 0 39.2627 141.472 0
-0.0047341 0.0239481 0 -1085.92 2370.74 0
-0.000460773 0.00539436 0 -550.248 2637.79 0
-0.00196148 0.00905338 0 -47.9552 2408.57 0
0.00143807 0.0303782 0 273.365 2688.86 0
7.94637e-005 0.00293894 0 -136.903 713.037 0
0.00013473 0.00481908 0 223.315 2625.61 0
0.00105264 0.00484794 0 1367.41 2349.51 0
0.000112877 0.0030262 0 1478.68 1147.58 0
-0.00781161 0.0282885 0 -1449.82 2221.71 0
-0.000846622 0.00344471 0 -740.748 695.533 0
-0.00206201 0.0306837 0 -386.644 2687.16 0
-0.00313594 0.0160362 0 -741.857 2372.79 0
0.00144289 0.0198776 0 534.263 2452.81 0
-0.000135136 0.00286502 0 93.5963 317.836 0
-0.000205101 0.000950881 0 -2.07535 12.889 0
0.000372212 0.00308853 0 580.046 261.747 0
0.000370404 0.000795868 0 5.58747 10.2533 0
0.000201681 0.00347815 0 980.188 2107.29 0
-0.000147808 0.00278598 0 104.281 368.065 0
0.000218103 0.000637733 0 4.12995 6.0973 0
0.000195722 0.00313377 0 1760.75 1214.3 0
-0.00203813 0.00594128 0 -364.734 1401.59 0
0.00112067 0.00510142 0 1245.8 2390.08 0
5.16573e-005 0.00373385 0 197.478 2420.16 0
0.000381501 0.00336875 0 1820.04 1510.59 0
0.000860715 0.0258401 0 204.674 2653.93 0
-0.000116556 0.00339842 0 -676.405 2180.34 0
-0.00513668 0.0257477 0 -1223.32 2365.76 0
-0.000162894 0.00277847 0 64.1502 210.028 0
8.27341e-005 0.00277738 0 -70.3204 451.889 0
0.0010674 0.0118759 0 -386.53 2537.01 0
-4.09992e-005 0.00275121 0 33.0956 438.647 0
3.29665e-005 0.00297369 0 -59.0095 907.486 0
-0.00204547 0.0090065 0 -69.9855 2377.43 0
-0.00160474 0.0048986 0 -701.484 1791.94 0
8.25825e-005 0.00294819 0 -149.247 733.475 0
4.00473e-005 0.00273627 0 -30.2465 424.352 0
-9.41642e-005 0.00295571 0 168.661 712.409 0
0.00150619 0.00997327 0 -172.41 2523.29 0
8.22134e-005 0.00268838 0 -51.2926 375.144 0
-0.000160791 0.00267895 0 84.8045 329.91 0
-0.000596112 0.00909085 0 -197.331 2793.79 0
-9.31423e-005 0.00299701 0 144.205 1014.36 0
0.00235681 0.0126226 0 -48.7484 2167.57 0
0.00203765 0.00557212 0 191.643 780.084 0
-0.000165794 0.0115731 0 346.215 2706.49 0
6.0159e-005 0.0021996 0 -10.5054 164.644 0
0.000371981 0.00362464 0 1364.6 2036.41 0
-0.00733688 0.029685 0 -1315.34 2334.42 0
-0.000180414 0.00743151 0 -126.462 2786.59 0
-0.000357207 0.004885 0 -520.828 2604.13 0
0.00253943 0.00813968 0 142.355 1315.16 0
-1.29377e-005 0.00332967 0 -78.0067 2131.62 0
-0.0010235 0.00361199 0 -557.265 608.74 0
-0.000285329 0.0030748 0 -1209.88 447.106 0
-0.000681311 0.00329291 0 -816.23 568.292 0
-0.00260727 0.00895038 0 -68.194 1358.8 0
0.00788717 0.0276195 0 1482.91 2324.11 0
0.0089704 0.0287411 0 1530.72 2286.93 0
-0.000270534 0.00232157 0 55.5289 189.97 0
-0.00014416 0.00312601 0 -1345.62 1441.99 0
-0.000337662 0.00201762 0 37.8642 138.15 0
0.0003962 0.00337513 0 1833.88 1513.65 0
0.00121317 0.00701782 0 463.301 2638.84 0
0.000116206 0.00302915 0 1501.2 1171.22 0
0.00225197 0.00666935 0 318.507 1425.31 0
-0.000507665 0.00548922 0 -581.674 2631.62 0
-0.000231863 0.00226746 0 44.8529 185.272 0
0.000244361 0.00226851 0 -45.6631 182.871 0
0.00111028 0.00505498 0 1257.98 2373.4 0
0.000121223 0.00304184 0 1491.94 1160.59 0
0.00012049 0.00243938 0 -36.4666 239.713 0
-0.0013386 0.0186068 0 -379.656 2525.14 0
0.000102064 0.00149733 0 -4.86818 48.037 0
0.000147362 0.00301363 0 647.156 149.47 0
0.00106981 0.0119939 0 -392.256 2546.5 0
-0.000365953 0.00411169 0 -895.083 2406.36 0
0.00557444 0.020358 0 1235.1 2359.55 0
4.86089e-005 0.00307386 0 253.935 1501.69 0
-0.000177413 0.0035472 0 -785.67 2218.13 0
-0.000632994 0.00339325 0 -1685.35 1374.3 0
0.000487307 0.00130985 0 -17.1355 58.5916 0
-0.000349424 0.00402777 0 -890.31 2388.31 0
-0.00177251 0.00629586 0 -405.156 2242.14 0
-7.92525e-005 0.00273084 0 57.8629 410.349 0
0.000241714 0.00100077 0 1.04826 16.4834 0
-0.000154516 0.0114773 0 337.823 2716.14 0
0.00502442 0.0222916 0 954.092 2515.07 0
-0.000166546 0.00272686 0 79.793 322.343 0
0.000707598 0.00365891 0 1806.26 1641.5 0
-0.00157418 0.0046046 0 -597.797 1316.4 0
0.000122725 0.00301099 0 982.091 330.422 0
0.000172305 0.00324558 0 1255.24 1747.77 0
7.46185e-006 0.00286175 0 -9.12209 594.102 0
0.00533293 0.0140838 0 1363.97 988.915 0
0.00520504 0.0284215 0 1073.41 2422.93 0
-0.00170266 0.00713636 0 -249.638 2434.89 0
4.38765e-005 0.00290514 0 -68.1182 671.442 0
0.00035679 0.0099507 0 125.524 2840.62 0
0.000120447 0.00300871 0 824.982 281.04 0
7.85992e-005 0.00284146 0 -87.0376 529.339 0
0.000146556 0.00306157 0 1741.21 1082.03 0
-0.000265484 0.00230758 0 52.9062 189.694 0
-0.000558184 0.0114136 0 455.054 2655.2 0
0.000873988 0.011905 0 -426.441 2560.02 0
0.00195145 0.0157285 0 98.2268 2540.89 0
0.000415959 0.00988952 0 151.581 2837.82 0
0.00204861 0.00551694 0 212.528 439.497 0
0.00159497 0.00893937 0 -38.8324 2513.75 0
0.00125366 0.00690066 0 418.68 2594.83 0
-0.000537482 0.00397822 0 -1361.27 2192.8 0
-0.00245206 0.00890865 0 -196.377 1854.34 0
-0.00591638 0.015069 0 -1575.16 1269.35 0
0.00182541 0.0157696 0 20.7862 2563.56 0
-6.39179e-005 0.00274368 0 49.7969 426.762 0
1.24162e-005 0.00286011 0 -15.2123 590.298 0
0.000785526 0.00520879 0 975.926 2518.48 0
0.000119132 0.00288179 0 -133.189 497.078 0
0.000107617 0.00492998 0 153.34 2649.33 0
-0.000398708 0.00617064 0 -374.069 2718.05 0
-0.00031795 0.000861625 0 -3.30771 10.3762 0
-0.0054742 0.0145195 0 -1544.52 1199.38 0
-0.00050603 0.0093045 0 -172.929 2804.9 0
-0.00281713 0.0160093 0 -594.787 2409.61 0
-0.00521587 0.0225645 0 -986.543 2514.7 0
0.000631138 0.00410172 0 1392.39 2139.21 0
0.00077675 0.0118594 0 -465.817 2599.43 0
-0.000339893 0.00491785 0 -507.126 2622.49 0
0.000278502 0.0033019 0 1651.14 1581.47 0
-0.000206291 0.0025551 0 74.2559 254.043 0
0.0015782 0.00885327 0 -36.3237 2514.15 0
-0.000601058 0.00917374 0 -192.609 2792.73 0
0.000107852 0.00308374 0 1018.94 1482.6 0
0.000329157 0.00324408 0 1911.55 1229.9 0
-0.000107456 0.0030138 0 -1246.92 1121.81 0
0.000995869 0.00478803 0 1392.87 2334.33 0
-0.00176263 0.00715431 0 -246.982 2393.63 0
0.000133123 0.00190024 0 -12.6906 103.307 0
0.00428452 0.0222831 0 821.395 2561.35 0
0.00249322 0.0134845 0 313.599 2309.22 0
0.000209201 0.00303326 0 776.007 221.356 0
1.124e-005 0.00241342 0 -2.96732 232.604 0
-0.000138897 0.00282521 0 113.619 398.245 0
-0.000422518 0.00130967 0 10.0227 46.1106 0
0.000897928 0.00602889 0 826.339 2604.61 0
0.00296246 0.0177704 0 586.774 2505.36 0
-0.000240922 0.0022558 0 45.2547 182.279 0
0.000161456 0.0106342 0 51.8146 2852.87 0
-0.000169117 0.00269067 0 87.3805 321.464 0
-0.00600599 0.0132277 0 -819.825 345.269 0
-0.00498542 0.0226529 0 -929.412 2511.85 0
0.00035646 0.00189436 0 -32.5526 118.311 0
0.000360867 0.00193124 0 -34.8915 124.507 0
0.000188008 0.00159518 0 -9.96379 61.7903 0
0.00315697 0.0294361 0 621.504 2611.13 0
0.000380728 0.00331446 0 1903.52 1328.44 0
-0.000407732 0.00541329 0 -481.935 2650.59 0
0.00599218 0.0187772 0 1437.51 2082.95 0
-0.000475668 0.0124289 0 489.523 2625.95 0
9.243e-005 0.00339173 0 506.947 2166.18 0
-0.0022067 0.00902531 0 -124.641 2273.59 0
0.000138287 0.010546 0 52.4327 2850.68 0
-4.59787e-005 0.00300592 0 33.168 1088.52 0
0.000475334 0.00325723 0 1846.19 1178.01 0
0.0081269 0.0233608 0 1461.41 2213.42 0
-0.000136448 0.00286953 0 79.6389 256.579 0
0.000465099 0.00132931 0 -16.0476 57.479 0
0.000196949 0.00312437 0 1818.48 1158.56 0
-0.000725979 0.00459524 0 -1203.16 2388.34 0
0.00566025 0.0201173 0 1252.4 2341.71 0
-0.000237093 0.000937504 0 -2.2706 12.5299 0
-7.15727e-006 0.00298867 0 9.78987 983.218 0
-0.000556128 0.00552312 0 -604.288 2633.43 0
-0.000151452 0.00278159 0 94.2795 355.619 0
0.00604583 0.0167381 0 1640.77 1738.38 0
5.44524e-005 0.00307484 0 305.545 1509.89 0
3.5211e-005 0.00270778 0 -24.0527 399.535 0
-0.00210731 0.0068781 0 -288.927 1967.03 0
8.91266e-005 0.00319599 0 701.92 1845.07 0
-0.00242079 0.00974735 0 22.8144 1968.74 0
0.00135885 0.00413507 0 564.623 966.006 0
-0.00108228 0.00797081 0 -226.625 2680.38 0
3.29303e-005 0.00271504 0 -22.7817 406.065 0
-0.000508078 0.0208168 0 -192.748 2553.79 0
-0.00472826 0.0198065 0 -1036.7 2440.33 0
0.00152826 0.0090827 0 -60.0849 2529.93 0
-0.00252462 0.00897287 0 -107.564 1693.9 0
-4.09377e-005 0.0027578 0 33.9997 445.67 0
-0.00186927 0.0116808 0 244.435 2411.13 0
0.00108447 0.00518193 0 1238.6 2413.72 0
-0.00419392 0.0202211 0 -856.862 2453.9 0
0.000296615 0.00594885 0 294.041 2702.33 0
0.00365557 0.0156923 0 1031.99 2275.33 0
-0.000138643 0.00311989 0 -1304.02 1450 0
3.44704e-005 0.00298593 0 -55.4579 967.215 0
-0.000249911 0.000891772 0 -2.78828 11.0845 0
0.00110337 0.0099601 0 -234.569 2585.92 0
8.04689e-005 0.00279643 0 -73.6953 472.984 0
0.00779157 0.0249956 0 1337.19 2367.28 0
0.000351464 0.00337107 0 1743.58 1580.5 0
-0.00012879 0.00323538 0 -983.182 1867.03 0
0.000155895 0.00168996 0 -10.0021 72.4296 0
8.56943e-005 0.00294739 0 -153.358 721.793 0
0.0053023 0.0238774 0 1015.98 2508.58 0
0.000238423 0.00318026 0 1792.7 1243.41 0
0.000230406 0.00226533 0 -44.1606 182.677 0
-5.15866e-005 0.00292996 0 89.1352 731.509 0
2.57476e-005 0.00286927 0 -33.6783 604.355 0
0.000105066 0.00340141 0 565.134 2152.13 0
-0.0006343 0.00341198 0 -1707.92 1402.9 0
-0.00683177 0.0130924 0 -605.818 358.399 0
-1.54609e-005 0.00299907 0 15.5279 1035.72 0
-0.00215958 0.00656839 0 -296.344 1573.47 0
0.00301179 0.0141363 0 814.045 2153.44 0
-0.000723924 0.00463742 0 -1192.18 2396.14 0
-0.000555458 0.00358088 0 -1792.48 1627.53 0
0.000287933 0.00394954 0 790.155 2383.08 0
-0.00525881 0.0259389 0 -1223.96 2373.62 0
-0.000235386 0.00314485 0 -1898.4 1090.34 0
-0.000664883 0.00104525 0 18.0621 62.0907 0
0.00182857 0.0107598 0 -156.39 2436.75 0
0.00289308 0.0133881 0 713.267 2031.3 0
0.000556851 0.000459359 0 2.05626 -0.485505 0
-6.31462e-005 0.00306344 0 -345.92 1471.61 0
0.00204396 0.0126442 0 -245.272 2336.05 0
-0.000369072 0.00408052 0 -918.252 2408.51 0
-0.00018247 0.00378321 0 -613.734 2376.64 0
0.000579156 0.0162179 0 -19.3277 2451.79 0
0.00117061 0.0100074 0 -229.229 2587.66 0
0.000129771 0.00301154 0 846.865 213.536 0
0.00050022 0.00329429 0 1853.75 1226.4 0
-0.00194273 0.0117557 0 220.716 2393.04 0
0.000295066 0.00600891 0 293.075 2703.31 0
-0.000154748 0.0030213 0 -950.91 254.276 0
8.51353e-005 0.00297491 0 -168.222 826.279 0
0.000370749 0.00364798 0 1348.81 2050.21 0
0.00032381 0.000892659 0 3.55998 13.6309 0
-0.000114683 0.00273658 0 81.3679 398.56 0
7.10543e-005 0.0030026 0 -64.2309 1094.66 0
-9.6647e-005 0.00324264 0 -727.269 1932.39 0
0.000733896 0.00537107 0 858.095 2561.01 0
0.000155197 0.00494735 0 230.117 2645.57 0
0.000610019 0.00412319 0 1359.13 2184.35 0
0.000353717 0.00194986 0 -34.9601 126.845 0
-0.000244432 0.00314026 0 -1928.34 1037.65 0
-0.00502653 0.0232658 0 -936.279 2535.9 0
-0.00178789 0.0309983 0 -356.627 2696.33 0
-0.000579723 0.00361754 0 -1783.23 1659.76 0
0.00813841 0.0273314 0 1375.34 2419.98 0
-0.002496 0.0131044 0 -221.214 2198.32 0
-0.00431729 0.0290645 0 -858.715 2543.93 0
-0.000157683 0.00240005 0 43.2065 225.203 0
-6.09633e-005 0.00273787 0 46.1517 421.64 0
-0.000172602 0.00356894 0 -751.382 2262.84 0
5.95493e-005 0.00280503 0 -57.8063 493.542 0
3.59382e-005 0.00297531 0 -64.1544 913.69 0
0.0038221 0.0156522 0 1105.45 2204.18 0
0.00151814 0.00899556 0 -59.1041 2529.86 0
0.00891208 0.0209237 0 1559.18 1917.93 0
0.00932881 0.0247628 0 1507.15 2219.85 0
0.000401147 0.00319889 0 1888.18 1053.99 0
-1.37134e-005 0.00292236 0 23.5932 731.149 0
-0.00149883 0.0199029 0 -502.117 2470.53 0
-0.000151382 0.00307642 0 -1683.41 1141.88 0
-9.99299e-005 0.00297786 0 175.022 668.831 0
0.00528439 0.0241343 0 1043.36 2470.8 0
2.61097e-005 0.00286432 0 -33.308 595.118 0
0.000206875 0.00349712 0 977.02 2116.22 0
-0.00509797 0.0234717 0 -937.406 2527.67 0
-0.000597722 0.000953511 0 7.04278 31.5771 0
-0.00793898 0.0155863 0 -1146.6 896.316 0
0.00183935 0.0106624 0 -151.172 2437.07 0
7.52069e-005 0.00339368 0 417.139 2183.59 0
-7.77056e-005 0.00294222 0 138.089 730.773 0
-9.8985e-005 0.00297992 0 182.254 698.884 0
0.00161823 0.00911669 0 -46.8856 2509.86 0
8.21842e-005 0.00297527 0 -160.943 841.909 0
-0.00188133 0.00900925 0 -35.293 2432.72 0
-0.00617827 0.0275965 0 -1278.37 2348.23 0
-0.000490092 0.00321051 0 -1529.8 935.151 0
0.00945115 0.0288751 0 1582.51 2243.06 0
-0.00016434 0.00272067 0 88.8193 333.822 0
-0.00797941 0.0222445 0 -1512.24 2147.23 0
-4.01564e-005 0.00301654 0 2.29398 1150.38 0
-0.00180498 0.00506765 0 -363.231 1061.29 0
-0.000161305 0.00301261 0 -307.793 53.3755 0
-0.000482063 0.00316965 0 -1098.25 605.137 0
-0.000942791 0.00378901 0 -1335.76 1720.82 0
-0.000134053 0.00282435 0 117.596 425.71 0
0.000242746 0.000963685 0 1.72322 15.1048 0
0.00525461 0.0274919 0 1127.41 2355.96 0
0.00306352 0.0179257 0 615.649 2517.79 0
-0.000120066 0.00324295 0 -910.155 1892.22 0
-0.00319507 0.0125029 0 -1141 1331.79 0
-0.000290892 0.00233844 0 46.7199 164.412 0
0.00159844 0.00482417 0 691.524 1675.75 0
0.00787978 0.0236538 0 1403.77 2298.13 0
0.00145057 0.0259009 0 371.779 2623.79 0
-0.000336257 0.00619409 0 -294.331 2728.02 0
-0.000333917 0.00172186 0 20.3873 88.8161 0
0.00577509 0.0216659 0 1146.35 2404.71 0
0.000667048 0.00332313 0 1181.07 914.84 0
0.00248969 0.00807562 0 137.915 1504.13 0
-0.00160944 0.00467215 0 -575.203 1305.54 0
1.98969e-005 0.00242157 0 -5.72098 235.795 0
0.000286635 0.0021356 0 -40.9051 155.091 0
-0.00161117 0.00618199 0 -394.718 2322.84 0
7.54635e-005 0.00268391 0 -46.6711 373.24 0
0.00101663 0.00497361 0 1302.83 2344.23 0
9.78423e-005 0.00320089 0 763.307 1833.83 0
-0.000282098 0.0245537 0 -95.1697 2643.55 0
0.00160534 0.0053807 0 615.003 2116.87 0
0.000645555 0.00426047 0 1302 2252.65 0
0.000344665 0.00191282 0 -32.5296 120.211 0
-4.37224e-005 0.0030135 0 9.85217 1134.84 0
0.000410526 0.00592784 0 397.094 2695.64 0
-0.00161438 0.00462874 0 -518.344 1112.04 0
0.000197339 0.00307463 0 1872.74 796.971 0
-0.00787948 0.0250527 0 -1324.67 2363.84 0
0.000365567 0.000836364 0 4.90702 11.9304 0
0.000428529 0.0031113 0 522.336 254.132 0
6.29689e-005 0.00280138 0 -60.611 487.087 0
-0.00260928 0.0115127 0 28.6672 1810.44 0
0.00511854 0.0182191 0 1267.58 2187.95 0
-0.000191506 0.0013612 0 2.61768 36.7386 0
0.000255298 0.00234631 0 -53.2885 194.522 0
7.80872e-005 0.00285378 0 -90.8734 546.77 0
-6.93966e-006 0.00361778 0 -19.0839 2362.68 0
-0.000112834 0.00273034 0 78.1394 395.07 0
-0.000151306 0.00308356 0 -1633.43 1193.18 0
0.000794921 0.00339323 0 796.773 673.866 0
0.000120559 0.00308016 0 1211.19 1443.66 0
-0.00060963 0.000994212 0 10.0752 39.4785 0
-0.000187211 0.00375918 0 -635.441 2367.4 0
-0.000179749 0.00239602 0 47.7862 222.383 0
0.000583853 0.00320912 0 586.558 388.032 0
-0.000220391 0.00307379 0 -1765.56 730.918 0
-3.20721e-005 0.00313154 0 -234.805 1704.84 0
-0.00240166 0.00829286 0 -213.199 1785.75 0
-0.000107553 0.0032363 0 -825.64 1900.25 0
0.000485775 0.00324734 0 1794.27 1153.83 0
-1.6528e-005 0.00283252 0 18.9351 543.733 0
0.000388916 0.00319175 0 1897.32 1050.66 0
-0.000191501 0.000101552 0 -0.18869 0.664596 0
-0.00244196 0.00780076 0 -175.724 1327.82 0
-0.000237142 0.00223825 0 42.9895 178.29 0
-0.00179252 0.00511195 0 -418.781 1271.53 0
7.86645e-005 0.00300926 0 13.3877 1192.03 0
-0.00578012 0.0268724 0 -1270.84 2330.21 0
-0.00101007 0.00801211 0 -329.482 2715.81 0
0.000363332 0.00337974 0 1750.7 1577.18 0
0.000391279 0.00186159 0 -33.6184 117.119 0
0.000433244 0.00317308 0 1506.45 825.482 0
0.00161612 0.00543442 0 601.477 2129.44 0
-0.00207993 0.00693738 0 -300.953 2042.56 0
0.000483914 0.00474879 0 741.717 2533.58 0
0.000802557 6.40842e-005 0 0.39154 -0.0399667 0
0.00066144 0.00330597 0 1051.15 795.263 0
0.00141767 0.0197289 0 541.898 2453.69 0
-0.000651775 0.00329699 0 -1081.98 821.082 0
0.000282152 0.00304241 0 265.519 76.431 0
-0.000357054 0.00319624 0 -1958.35 1066.35 0
-0.00178284 0.00623412 0 -415.638 2235.91 0
3.8992e-005 0.00380209 0 145.183 2434.94 0
-0.00100109 0.0210667 0 -381.311 2546.6 0
0.000165033 0.00158259 0 -8.59174 59.2392 0
0.00864187 0.0174253 0 1323.66 1348.01 0
0.00315453 0.0128329 0 1068.77 1711.64 0
-8.64597e-005 0.00318341 0 -710.065 1814.63 0
-0.000259494 0.0126492 0 436.627 2619.28 0
0.000466396 0.000355167 0 1.28546 -0.250816 0
0.000246728 0.00318708 0 1813.12 1236.97 0
-0.000724122 0.000493878 0 -1.1864 8.04304 0
-0.00236534 0.0089472 0 -178.982 2035.41 0
-0.00585899 0.0184819 0 -1403.59 2073.23 0
-0.000109395 0.00425783 0 -210.354 2555.35 0
-0.000225082 0.00307869 0 -1798.68 768.376 0
0.00116126 0.00383867 0 671.47 955.183 0
0.000146244 0.00305529 0 1775.33 1008.25 0
0.000106639 0.00285591 0 -117.917 513.926 0
0.00516349 0.0142403 0 1477.34 1158.79 0
-0.000547118 0.0281975 0 -133.084 2684.79 0
-0.00314055 0.0188201 0 -618.485 2527.49 0
6.39205e-005 0.0034062 0 358.266 2196.67 0
0.000746714 0.00049437 0 -0.728457 9.87671 0
0.00226648 0.0258744 0 572.847 2579.43 0
-0.000137355 0.00283875 0 109.495 390.499 0
0.00173233 0.0108179 0 -181.572 2463.4 0
-0.000334456 0.00625618 0 -292.923 2728.34 0
-0.000652252 0.00338145 0 -1600.45 1324.44 0
-6.89277e-005 0.00306466 0 -414.77 1489.87 0
0.000126795 0.00304178 0 1595.07 1071.17 0
0.00478399 0.0277755 0 1032.98 2464.87 0
0.000516287 0.0229306 0 155.566 2607.2 0
5.89116e-005 0.00254342 0 -23.9584 289.232 0
-0.00795861 0.0246948 0 -1338.08 2370.16 0
0.00133689 0.00999394 0 -189.242 2553.87 0
-0.000118825 0.0220921 0 -52.2668 2590.38 0
6.34909e-005 0.0107046 0 51.1142 2856.53 0
-0.000946741 0.00381309 0 -1338.78 1743.46 0
0.00581241 0.0241952 0 1070.99 2482.9 0
-0.00487736 0.01991 0 -1044.36 2438.22 0
0.00170829 0.0256098 0 449.961 2609.93 0
9.98067e-005 0.00316224 0 844.528 1734.92 0
0.00308063 0.0142797 0 817.872 2130.69 0
-0.000279242 0.00307977 0 -1403.21 525.506 0
-0.000183934 0.00303725 0 -1274.05 392.243 0
7.83288e-005 0.00286324 0 -95.1499 561.642 0
-0.000440884 0.00514493 0 -571.356 2623.29 0
0.000455558 0.00477565 0 694.666 2550.53 0
0.00520625 0.0221693 0 995.576 2495.05 0
-0.00179507 0.00722781 0 -234.541 2369.64 0
5.54873e-005 0.00266826 0 -33.0764 365.444 0
-0.00157971 0.00456195 0 -543.958 1140.21 0
4.18607e-005 0.00302762 0 33.2253 1223.15 0
-0.000194972 5.19224e-005 0 -0.0771792 0.263049 0
-0.000846289 0.00342394 0 -561.543 572.594 0
-0.00105965 0.00823661 0 -125.82 2695.55 0
0.000163413 0.00479131 0 271.343 2622.82 0
-8.2874e-005 0.00288534 0 111.96 593.097 0
0.00157378 0.00552232 0 605.103 2202.02 0
-7.66839e-005 0.00293931 0 133.613 723.61 0
0.000101978 0.0109948 0 33.994 2840.24 0
-0.000363872 0.00601296 0 -346.746 2710.84 0
0.000117978 0.00287815 0 -133.293 501.214 0
0.000219153 0.00318835 0 1685.55 1359.93 0
-0.00163196 0.00449872 0 -197.766 318.211 0
-0.000221409 0.00303399 0 -609.774 161.797 0
-0.000370966 0.0244074 0 -121.251 2636.61 0
-0.000466554 0.00315829 0 -1058.48 567.458 0
0.000396164 0.00331941 0 1906.55 1317.04 0
-0.00482666 0.0238063 0 -994.838 2453.33 0
0.00133411 0.00522841 0 771.766 2330.98 0
-0.00267568 0.00982141 0 -7.58025 1263.73 0
-0.000480207 0.0219659 0 -185.31 2581.12 0
0.00177473 0.0106071 0 -156.35 2459.2 0
0.000428512 0.00597987 0 399.397 2695.17 0
0.00330832 0.0202369 0 603.559 2565.83 0
-0.00036699 0.012473 0 482.8 2621.64 0
-0.000901486 0.00347959 0 -566.084 601.506 0
-9.70158e-005 0.00294708 0 166.615 675.979 0
-0.00110466 0.0144253 0 446.779 2511.57 0
-0.00107199 0.0143087 0 449.613 2515.69 0
0.000113095 0.0030798 0 1099.76 1464.78 0
0.000776547 0.0117402 0 -467.501 2604.27 0
-0.000196596 0.00302496 0 -527.254 138.78 0
-0.00581483 0.0148124 0 -1534.34 1193.65 0
0.000125326 0.00308478 0 1264.69 1427.46 0
-0.00172589 0.0230235 0 -554.746 2595.02 0
-0.00123798 0.0114294 0 289.966 2626.51 0
-0.000106038 0.00301072 0 -1258.82 1112.58 0
7.68012e-005 0.00277918 0 -66.1287 456.68 0
-0.000218387 0.00226751 0 42.7247 185.162 0
0.00288382 0.0120736 0 223.04 1258.46 0
0.000136685 0.00272066 0 -87.5723 369.729 0
0.00126396 0.00994364 0 -189.816 2566.98 0
0.000169734 0.00323168 0 1271.99 1721.76 0
3.33298e-005 0.00296283 0 -61.4415 859.866 0
7.38909e-005 0.00285244 0 -85.7784 548.026 0
0.00226662 0.00684142 0 293.946 1609.14 0
-4.80444e-005 0.00288948 0 69.8491 634.899 0
0.000117291 0.00304527 0 1380.3 1356.58 0
0.00044057 0.00316393 0 1297.01 701.686 0
0.00025781 0.000139806 0 0.529369 0.594362 0
-0.000553437 0.0115383 0 448.167 2639.88 0
0.00174054 0.0109254 0 -186.661 2463.71 0
-0.00657824 0.0304887 0 -1181.12 2405.15 0
-0.00287878 0.0309438 0 -533.162 2644.5 0
-1.74214e-005 0.00292383 0 29.9923 734.411 0
0.000417861 0.00311152 0 631.384 296.708 0
-0.000158816 0.00302837 0 -1260.75 376.742 0
0.000540608 0.00339996 0 1880.33 1369.49 0
0.00322243 0.0179545 0 705.917 2503.36 0
-0.000159371 0.0013528 0 1.63955 35.1454 0
0.000126077 0.0159893 0 7.86112 2444.68 0
-0.00432652 0.0294311 0 -853.754 2544.75 0
0.0015673 0.00546801 0 611.748 2189.65 0
-5.0904e-005 0.00292621 0 86.6447 722.096 0
-0.000106737 0.00293051 0 161.474 587.227 0
0.00275932 0.0110589 0 36.4128 1393.22 0
0.000556951 0.00340784 0 1871.17 1374.35 0
0.000399007 0.0063813 0 334.802 2727.23 0
-4.55764e-005 0.00288684 0 64.8216 630.359 0
5.78688e-005 0.00240298 0 -16.3107 228.122 0
-0.00135948 0.0128543 0 374.974 2488.86 0
0.00105587 0.00489705 0 1351.43 2337.53 0
-0.00180772 0.00736401 0 -208.03 2369.97 0
8.62884e-005 0.0107917 0 49.9695 2853.64 0
-1.73838e-005 0.00299616 0 20.712 1020.04 0
-0.000559779 0.00402893 0 -1366.44 2186.39 0
-0.000129894 0.00339006 0 -752.556 2136.05 0
-0.00108645 0.0209701 0 -395.119 2543.04 0
-0.000355289 0.00318516 0 -1953.12 1030.37 0
6.75287e-005 0.00268766 0 -42.5437 377.963 0
-1.6399e-005 0.00282695 0 18.5905 535.869 0
0.000375645 0.00184967 0 -31.4356 113.36 0
0.000226595 0.00318087 0 1747.94 1294.15 0
-0.00157723 0.0197887 0 -508.289 2468.69 0
0.000153682 0.00302297 0 1105.55 308.927 0
-0.000983791 0.00376429 0 -1250.19 1661.82 0
0.00320404 0.0139037 0 949.459 2046.33 0
-0.000399729 0.0051532 0 -508.696 2632.9 0
-8.43671e-005 0.0028893 0 116.84 598.156 0
0.00153091 0.0204307 0 542.234 2484.33 0
0.0023948 0.0125217 0 -46.3358 2148.89 0
0.000662239 0.00525468 0 795.992 2569.28 0
-0.00103759 0.0179087 0 -238.573 2451.56 0
-0.00194218 0.00558429 0 -392.386 1366.38 0
-0.000960129 0.00376594 0 -1322.28 1682.91 0
-0.000309837 0.00306474 0 -625.239 230.406 0
0.00162461 0.00920594 0 -48.1216 2522.79 0
0.00346181 0.0203111 0 642.078 2575.49 0
0.000412094 0.000782235 0 6.07015 10.1377 0
4.10836e-005 0.00290739 0 -64.3681 678.718 0
0.00107752 0.00513333 0 1237.43 2376.77 0
-0.00139776 0.00696247 0 -228.685 2583.91 0
5.83714e-005 0.0023895 0 -15.8725 223.215 0
0.000501828 0.0119171 0 -491.376 2594.39 0
-2.97555e-005 0.00300349 0 27.1845 1063.59 0
0.00113092 0.00612109 0 867.327 2574.71 0
3.11664e-005 0.00285722 0 -38.4815 580.864 0
-0.000756348 0.0223669 0 -268.519 2581.95 0
0.000606022 0.00322532 0 585.578 385.111 0
0.00858419 0.0213223 0 1583.15 2001.12 0
0.00228739 0.00873166 0 93.6168 2153.97 0
-0.00330691 0.0124678 0 -1117.93 1078.63 0
-0.00135503 0.018735 0 -404.121 2525.83 0
-0.00782909 0.0173425 0 -1589.78 1503.13 0
0.000179373 0.00168518 0 -11.1682 72.7704 0
0.000181353 0.0228576 0 47.4794 2609.63 0
0.00116853 0.00608209 0 869.667 2565.18 0
0.00534216 0.0272787 0 1132.49 2355.49 0
0.000808836 0.00340365 0 772.843 668.791 0
-0.00176706 0.00728799 0 -223.718 2383.67 0
0.000366125 0.00308127 0 469.225 211.833 0
0.000142062 0.00271694 0 -88.9953 362.194 0
0.000456136 0.0264018 0 97.8679 2663.68 0
0.000149779 0.00301624 0 769.225 199.357 0
8.09965e-005 0.015903 0 9.08989 2452.43 0
3.07264e-005 0.00286231 0 -38.8602 589.999 0
-0.000148146 0.00339011 0 -851.386 2097.66 0
-0.0064378 0.0277565 0 -1285.22 2337.42 0
0.00072806 0.00532362 0 860.483 2559.06 0
-0.00065633 0.00335203 0 -1432.58 1170.37 0
-0.000360464 0.000878987 0 -3.22248 11.422 0
-9.67537e-005 0.00295742 0 171.946 698.972 0
-0.000484113 0.00948683 0 -117.987 2788.21 0
-0.000565445 0.00399845 0 -1390.42 2174.18 0
0.000588623 0.00111811 0 -16.8075 57.9574 0
0.000130395 0.00304539 0 1624.79 1068.15 0
0.000107754 0.00285149 0 -116.527 507.15 0
0.00165731 0.0250536 0 435.366 2610.73 0
0.00285988 0.0119675 0 57.3467 1142.76 0
-9.54028e-005 0.00428588 0 -183.365 2567.58 0
-0.000124414 0.00317156 0 -1058.66 1722.18 0
-0.00814733 0.0285856 0 -1453.69 2213.51 0
-0.000216377 0.0031251 0 -1878.87 1065.71 0
0.00549751 0.012219 0 205.357 70.7882 0
-0.00550796 0.012201 0 -214.152 57.7371 0
0.00287309 0.0132504 0 686.039 2032.43 0
0.000396043 0.00090361 0 3.30213 15.636 0
-9.96587e-005 0.00294535 0 168.365 655.379 0
-0.00215947 0.00674928 0 -255.143 1691.77 0
-0.000289559 0.000893856 0 -2.99732 11.339 0
0.00184728 0.00894591 0 3.56334 2430.54 0
-0.000404895 0.00611192 0 -376.729 2717.14 0
-0.00085135 0.00350535 0 -1091.74 1103.8 0
3.34633e-006 0.00298331 0 -5.60432 957.564 0
0.00378526 0.0199019 0 742.372 2529.27 0
-0.000528492 0.024373 0 -167.505 2636.35 0
-0.000842118 0.0116133 0 398.644 2637.44 0
-0.00298148 0.0188909 0 -561.158 2555.82 0
5.9556e-005 0.0025331 0 -23.5374 284.201 0
-0.000468824 0.00121303 0 8.96282 41.2774 0
9.1581e-005 0.0171817 0 15.0847 2456.73 0
-0.00127026 0.0113439 0 288.974 2643.63 0
0.00402234 0.0130084 0 1447.22 845.384 0
-0.000363163 0.00496329 0 -508.44 2622.8 0
-0.00609252 0.0268039 0 -1301.35 2307.45 0
0.000283831 0.00172705 0 -19.1473 85.3841 0
-0.000884834 0.00452052 0 -1437.98 2234.13 0
0.000104251 0.00312707 0 922.609 1634.18 0
0.00028648 0.000908897 0 3.02556 13.7266 0
0.00627587 0.0218045 0 1233.99 2357.57 0
0.000138189 0.00301242 0 715.543 168.859 0
-8.45766e-005 0.00300744 0 -40.1 1214.7 0