/*--------------------------------*- C++ -*----------------------------------*\
  =========                 |
  \\      /  F ield         | OpenFOAM: The Open Source CFD Toolbox
   \\    /   O peration     | Website:  https://openfoam.org
    \\  /    A nd           | Version:  8
     \\/     M anipulation  |
\*---------------------------------------------------------------------------*/
FoamFile
{
    version     2.0;
    format      ascii;
    class       volScalarField;
    location    "6e-05";
    object      alphat;
}
// * * * * * * * * * * * * * * * * * * * * * * * * * * * * * * * * * * * * * //

dimensions      [1 -1 -1 0 0 0 0];

internalField   nonuniform List<scalar> 
23640
(
5.58074e-07
3.93206e-06
6.2247e-10
0.00314754
5.29183e-06
3.9395e-06
3.05754e-06
3.99404e-06
1.70186e-05
2.2687e-06
0.00101423
7.04956e-06
2.77287e-06
4.55244e-06
3.68602e-06
2.61209e-06
1.48918e-07
0.000385726
0.000946781
1.64557e-05
0.000671707
1.45031e-10
0.000712319
7.2155e-05
6.35084e-06
4.73221e-06
0.000148681
2.63987e-05
8.06576e-08
3.883e-06
2.04582e-06
0.0375871
0.000628076
9.92656e-06
1.09722e-05
2.72802e-06
1.60209e-07
7.43281e-07
3.58279e-09
0.000124962
7.2638e-06
1.67191e-05
5.28195e-06
8.33577e-09
0.0067708
0.000116041
4.46977e-07
4.77607e-06
2.30968e-06
3.33754e-06
0.170847
0.000725397
2.45517e-06
2.73075e-07
0.00332875
7.20146e-08
9.21577e-06
6.35733e-06
1.36908e-06
0.00291709
1.97615e-06
0.000166182
0.00109833
0.000808313
1.70012e-06
0.000785611
3.10961e-06
6.28726e-06
4.48651e-05
5.5856e-06
0.000122632
9.75173e-06
0.000410292
1.94068e-07
3.23689e-06
0.00977013
4.21811e-10
2.61152e-06
0.000949152
0.00114394
0.000133725
2.35976e-05
1.79602e-06
1.80646e-06
1.60816e-06
6.03619e-07
0.000697707
5.69637e-06
8.06276e-05
3.84442e-06
1.913e-06
6.8215e-06
7.05688e-06
0.000585928
0.000854821
4.99894e-06
0.000836355
3.82285e-07
8.58705e-06
5.12059e-06
9.14248e-06
2.7501e-07
2.77631e-05
2.36702e-07
7.838e-06
6.06604e-07
0.000412527
2.1277e-07
8.25699e-06
9.6495e-06
1.66426e-06
0.000441844
1.16203e-05
7.11943e-06
4.66272e-06
1.06147e-07
3.44189e-06
1.43681e-06
4.53701e-07
4.38544e-06
3.71342e-06
0.0331294
4.49865e-07
0.0373999
5.83489e-05
6.70086e-05
0.232872
1.48633e-05
3.98688e-06
6.70296e-06
4.34765e-05
1.49123e-05
2.92085e-06
8.45746e-05
4.83855e-07
3.25345e-06
0.000751596
6.48126e-06
0.00102162
0.000852446
9.24217e-06
9.28841e-06
0.000367041
0.00103927
0.000176461
8.36688e-06
0.00090418
0.000242001
2.0056e-06
4.34201e-05
2.85017e-06
1.16818e-06
2.0018e-06
0.00198042
2.59426e-05
3.5272e-07
3.08443e-06
1.18361e-05
2.57443e-06
0.000146472
3.52618e-06
1.74811e-06
2.71063e-06
1.70314e-06
6.83777e-08
5.14139e-08
0.000216876
4.73052e-05
0.000517151
1.44997e-05
4.65173e-06
4.36022e-06
3.21883e-06
7.65979e-06
0.000749212
0.000615098
6.61022e-06
8.01714e-06
0.00114757
3.40313e-06
0.00677636
2.01529e-08
6.4092e-06
2.16414e-05
8.05942e-08
0.000382949
5.78378e-05
7.84103e-06
0.00187362
2.40559e-05
1.70134e-05
0.000857815
0.0241461
1.9121e-06
1.45471e-07
6.42916e-05
7.9848e-06
5.52905e-06
1.47469e-08
5.9792e-05
0.00101349
6.86151e-09
8.14703e-07
1.69165e-05
0.000859064
1.52991e-06
8.49494e-09
0.000671369
7.1407e-06
0.000285191
4.61869e-06
5.99544e-06
1.55174e-06
1.53333e-06
1.02653e-06
9.75468e-06
5.95132e-06
1.63925e-05
4.07645e-06
1.26581e-08
1.78114e-06
0.000931701
0.00100881
7.2534e-06
9.86735e-05
1.08859e-05
5.25994e-06
0.0337234
1.28924e-08
1.91509e-06
6.71764e-07
1.39598e-07
1.36726e-05
5.68013e-06
1.14583e-05
2.40437e-05
0.000135604
9.88256e-06
2.02357e-06
7.4893e-05
1.06607e-05
9.33993e-07
7.38824e-06
1.60211e-05
0.00286815
2.09787e-07
1.20065e-06
2.38895e-07
0.00154838
5.69013e-05
0.00345377
4.6884e-06
4.43038e-07
0.000709316
1.37324e-06
0.000130043
1.41432e-09
1.51363e-07
0.000780372
0.000584039
0.00467911
1.54503e-06
1.13811e-05
8.29291e-06
5.04088e-08
5.2821e-06
9.50306e-05
7.62241e-06
1.38055e-06
0.000678113
5.23611e-06
3.56868e-08
1.87577e-06
0.00221869
1.25533e-05
1.09124e-05
7.80119e-08
0.0320522
0.0009157
7.57731e-06
5.90025e-05
2.87433e-08
0.000347685
0.00108568
8.72851e-06
0.000151539
4.90803e-06
4.87477e-06
3.59311e-06
0.00108385
7.14468e-06
1.63378e-07
9.28053e-06
3.42426e-06
0.00101562
7.27694e-06
6.49559e-06
2.1361e-07
5.64396e-06
2.03616e-07
4.96164e-05
0.000817378
0.0386476
7.43257e-06
0.000735456
4.67541e-08
1.83933e-05
9.42e-05
0.00409947
0.000322117
1.31861e-07
1.55073e-05
0.000766061
0.000787152
0.000971672
8.79027e-05
7.61917e-06
9.07807e-10
0.000870274
4.81169e-06
4.31631e-07
1.05494e-05
1.10026e-05
2.53043e-05
4.54653e-07
1.25181e-05
7.27442e-05
7.01999e-06
4.38985e-07
0.103862
0.000319616
4.1877e-06
2.18582e-05
4.11716e-05
1.05931e-05
7.64761e-06
1.57558e-08
5.58856e-06
6.87385e-06
5.60374e-06
2.64311e-07
0.000234818
2.63033e-05
0.02855
0.000564079
0.000370928
0.000130582
6.83171e-06
1.01992e-05
1.44814e-05
0.000598962
1.07078e-05
1.63773e-07
1.42049e-06
1.08648e-05
5.41172e-08
1.61728e-06
1.15296e-06
0.000998547
0.000950123
5.54962e-05
0.000870397
0.000833615
1.60319e-07
9.54083e-06
1.65785e-08
2.92223e-08
4.45519e-06
0.000979929
3.87342e-06
1.71104e-05
2.06761e-05
1.32119e-07
0.000973397
5.69133e-05
1.65205e-07
0.00224197
7.86833e-09
7.07233e-06
9.90918e-05
0.00047331
2.20166e-05
9.1556e-06
0.000285781
1.03464e-05
3.60303e-07
4.65184e-06
4.30982e-08
8.77391e-05
3.50748e-08
0.000684383
3.52366e-06
5.20463e-09
2.65001e-06
1.25327e-05
0.000114228
0.0281441
7.00984e-07
4.18859e-07
0.000103576
6.37245e-08
3.38051e-05
8.78996e-06
4.14385e-08
2.71413e-06
5.07978e-06
0.0018421
9.17169e-08
3.71346e-06
2.88736e-06
5.60938e-06
0.00152698
0.000649574
1.94255e-05
0.000951053
7.04554e-06
0.000140988
3.51175e-06
1.70046e-05
1.28639e-05
0.000829026
0.000669
5.44027e-06
5.30401e-06
3.29459e-06
5.9344e-08
0.0308259
6.23373e-07
0.000855602
2.41992e-06
8.30419e-08
0.00820354
0.000269819
0.000651939
6.28981e-05
0.000590887
1.98655e-05
2.70639e-06
4.23672e-05
0.00139885
4.09139e-05
0.000836292
1.11332e-06
3.86964e-06
0.000330564
4.31268e-06
0.000117601
4.8753e-06
0.00101876
4.43964e-06
40.2614
3.26859e-06
0.000790152
3.76724e-06
0.000234485
4.79731e-07
3.17185e-06
1.80622e-05
0.000465093
3.12784e-06
1.71599e-05
8.68332e-06
1.10061e-05
4.29227
3.40827e-06
4.45644e-06
3.88557e-06
1.50004e-08
7.17343e-06
1.7093e-05
4.11522e-05
5.58264e-06
0.00506339
1.49801e-08
1.37549e-07
0.000156676
4.87353e-06
0.858846
1.51309e-05
0.00593892
5.54295e-06
6.29637e-08
2.18423e-05
3.93646e-06
4.22968e-06
5.43978e-06
0.00032445
1.09635e-08
2.13189e-06
4.27718e-07
9.40439e-05
0.00343907
2.21991e-06
4.97285e-05
7.03701e-06
5.06194e-06
7.22842e-06
0.000271495
5.48399e-06
9.81985e-07
4.7475e-06
0.00123655
5.83074e-08
8.26347e-06
5.83952e-06
1.36393e-06
1.22112e-05
1.03844e-07
1.52473e-07
2.73471e-06
0.000135433
4.03615e-07
2.1413e-06
1.0302e-06
0.000630965
9.29654e-06
1.0695e-05
1.29977e-07
1.57878e-05
0.00106573
5.34285e-06
0.000608951
63.6552
2.94109e-06
3.90303e-06
1.18023e-05
0.000544102
1.8611e-05
0.000490566
1.34685e-06
5.608e-06
0.000115775
2.20412e-05
8.53562e-07
3.1187e-07
3.63835e-06
2.51689e-06
1.09301e-05
2.00937e-07
1.5899e-05
1.54189e-06
5.78511e-06
7.31333e-06
5.41088e-06
3.40715e-07
4.98309e-06
2.97771e-06
0.000154881
6.24796e-06
6.23027e-06
5.66763e-05
5.7212e-06
1.30231e-07
1.26389e-08
4.05245e-05
3.28828e-06
7.41033e-06
6.78546e-07
0.000791218
0.000877033
5.08509e-07
0.000372435
8.09304e-06
6.05139e-05
0.000868754
0.000696723
3.86952e-06
0.000855698
1.38203e-05
2.35959e-06
25.7581
4.99196e-06
7.08947e-06
5.45853e-07
1.29791e-06
0.000970591
7.09781e-07
7.16392e-07
6.79588e-06
3.45277e-07
0.00895452
1.52101e-05
1.13392e-06
1.91623e-05
0.000796085
7.56268e-05
1.65571e-06
6.80689e-06
4.4961e-06
0.000873
0.00149097
6.95506e-06
6.92841e-06
1.51048e-05
1.36334e-06
0.000875482
1.5171e-05
8.24898e-05
5.59956e-06
6.80084e-06
0.000986352
0.00102238
0.000717428
1.77787e-05
3.47718e-06
1.73014e-07
1.11176e-05
2.46023e-07
9.50334e-06
0.000521357
4.2522e-06
2.85728e-06
7.28722e-06
4.99385e-06
4.28487e-06
1.17468e-05
7.0537e-07
9.20502e-06
3.12102e-07
0.0312559
0.000874047
6.64993e-06
9.94343e-06
0.00151636
4.93411e-06
0.000800311
4.64159e-06
0.000960322
4.99033e-06
1.20599e-06
1.96145e-08
6.21502e-06
2.43065e-08
3.13135e-06
1.34328e-08
0.00393212
4.97827e-06
4.87892e-06
6.86354e-07
2.73192e-06
1.54318e-05
3.53972e-07
0.000335954
2.75771e-06
3.54221e-08
1.49396e-05
0.000958876
7.4805e-05
3.71089e-07
6.88266e-06
5.69255e-06
0.0252332
0.000127764
1.86718e-06
1.56063e-05
0.00097273
5.72982e-06
0.000325196
2.95542e-06
6.02964e-07
2.11972e-05
9.29496e-05
1.11432e-07
1.24142e-05
4.83757e-12
3.10757e-12
4.55239e-07
0.0187092
0.000131006
5.36367e-06
0.0328726
8.87286e-06
5.27031e-06
6.06647e-06
0.000929763
2.44058e-07
3.72309e-06
6.48893e-06
4.81924e-07
0.00124959
0.00323971
1.63484e-05
7.61956e-06
6.08259e-09
1.06452e-05
2.87511e-07
0.00247492
8.29726e-06
0.000115956
0.0309483
7.59935e-08
1.50531e-08
0.000152512
3.10083e-06
0.000575559
1.01314e-07
4.97388e-06
1.33474e-05
0.000149201
1.09927e-05
0.0101777
0.000921057
1.102e-05
4.735e-05
6.246e-07
1.29121e-05
6.64037e-05
8.7486e-06
0.000230404
1.56735e-05
0.000584304
6.69697e-05
6.7715e-06
1.94858e-08
1.0604e-10
2.32045e-06
5.49752e-06
3.46572e-06
0.000619921
1.00592e-06
1.05138e-05
0.000152882
5.48578e-06
1.92382e-08
2.64824e-05
1.8382e-10
5.85918e-08
1.90717e-07
7.821e-06
0.00263159
1.29948e-05
9.19892e-07
0.00103369
0.000189765
3.42816e-07
1.01276e-05
1.05412e-08
7.0031e-06
0.00110509
1.46646e-05
2.30343e-06
1.02135e-05
0.00113725
1.024e-05
1.77558e-07
0.00029418
1.13188e-06
1.89866e-05
9.90093e-08
3.81188e-06
0.000478406
2.99924e-08
8.23883e-06
3.174e-06
6.67631e-06
0.892223
9.85492e-05
2.53269e-07
0.000681546
9.85571e-05
1.28542e-06
1.38225e-06
0.000219588
1.1022e-05
0.00194096
2.10838e-07
0.00108848
1.36204e-05
0.00057126
2.61667e-05
5.14931e-06
1.62274e-05
0.000102191
1.16734e-05
6.99631e-05
2.9237e-06
0.000497521
1.51263e-05
0.000715731
4.20116e-08
7.44626e-06
0.0391287
1.28103e-09
4.61985e-08
4.36423e-07
0.00313525
7.14622e-05
1.11433e-07
2.16621e-05
1.17442e-05
1.78098e-08
3.38068e-06
0.000225825
5.23565e-06
2.3301e-08
0.000162219
1.26829e-07
0.000856477
2.20162e-07
0.000107772
1.29412e-05
8.79122e-06
6.97068e-06
1.63103e-06
4.94948e-06
0.00104677
3.5021e-06
0.000827537
0.000747915
3.40503e-06
2.10774e-06
8.71171e-05
5.51503e-06
0.00163791
3.65455e-07
1.73715e-05
2.74506e-06
7.5436e-07
3.79871e-06
8.4076e-06
1.57612e-05
5.11403e-10
1.24104e-06
2.81888e-05
7.48077e-08
0.000202823
4.51083e-05
1.22099e-06
5.75206e-06
0.000226044
3.60006e-06
9.81545e-05
6.85946e-07
0.000887547
1.12814e-05
1.08061e-05
4.22809e-06
0.000352861
5.94374e-09
3.03034e-06
0.000859875
1.31856e-05
0.00107046
1.22798e-05
3.20562e-07
3.33373e-07
0.00201398
3.66336e-06
8.78512e-05
5.92502e-06
3.45838e-06
2.81184e-06
5.58592e-06
9.11556e-07
0.000969488
28.3938
6.19629e-06
1.853e-05
1.34646e-05
1.22547e-05
1.62717e-05
3.87647e-07
4.8694e-06
9.7342e-05
0.000180577
2.53548e-06
0.00106597
7.39791e-07
0.0104981
1.91651e-06
1.48243e-05
0.000209279
0.000850402
0.000865103
0.358418
8.39215e-08
7.01453e-05
6.05009e-05
3.89833e-07
3.58512e-08
7.268e-06
2.29062e-06
0.000840297
2.13958e-06
1.04212e-05
1.29792e-05
0.00109035
4.29552e-05
0.00239125
1.36862e-06
1.09322e-09
8.56468e-05
8.47716e-06
1.31237e-06
5.87104e-06
2.52131e-05
3.32735e-08
1.58708e-06
7.19729e-09
0.00011503
0.000983542
1.06987e-08
4.92442e-06
2.12863e-06
0.000275762
1.23549e-09
2.4439e-05
1.18085e-06
1.15155e-05
3.31603e-07
2.53154e-05
3.24029e-08
2.55042e-06
1.56389e-05
0.000248947
4.81742e-06
0.000218149
0.000681318
0.000845107
0.00101273
1.56775e-06
0.000223885
4.10076e-06
8.23912e-05
4.57671e-08
2.06797e-06
1.30674e-07
1.51853e-05
2.24934e-06
0.00199195
0.000871378
0.000554188
7.12683e-10
7.73079e-06
0.00540157
2.94268e-05
2.60748e-06
2.65988e-06
8.79181e-06
0.00133775
6.75181e-07
2.56273e-08
2.72091e-07
3.33392e-06
0.00104272
1.3959e-05
0.000380135
0.000192786
1.41088e-07
1.39836e-06
6.65419e-06
0.000936556
4.57719e-07
1.88625e-06
2.54223e-06
2.47011e-06
0.000281869
1.09924e-09
3.94269e-06
1.65984e-07
1.00975e-05
1.79767e-06
0.000806805
6.18623e-07
7.89557e-06
1.53042e-06
4.35519e-06
0.00128796
1.44352e-06
4.43766e-06
0.00101633
3.60564e-07
0.000883805
1.29247e-05
9.4448e-07
2.82854e-06
7.32481e-06
1.91905e-06
1.13996e-05
0.000567699
6.14478e-07
2.18683e-06
8.54298e-06
4.4598e-06
4.77148e-06
0.000458991
5.72184e-09
2.93303e-06
0.000178995
0.000964598
5.60614e-07
0.00209499
7.56173e-06
7.46902e-06
0.000192157
1.18606e-05
0.00149883
1.36751e-06
1.13511e-05
5.24066e-06
1.09951e-05
7.07147e-07
0.000706941
2.48289e-05
3.5868e-06
0.000149905
2.03558e-05
1.6928e-07
4.37498e-08
7.4221e-08
3.89743e-08
5.97883e-06
8.00764e-07
2.93428e-06
5.83815e-05
8.81812e-06
1.8464e-06
2.93044e-06
1.20468e-05
9.60614e-10
0.000832339
0.0153078
1.67699e-08
0.00011976
3.04835e-05
5.10161e-08
3.14386e-06
0.000943356
1.28355e-05
4.45601e-06
0.000855431
2.50284e-05
3.62221e-06
1.30884e-05
7.18256e-07
6.80565e-06
3.29464e-06
4.36952e-06
9.37777e-06
5.43539e-07
7.97035e-07
0.000440386
4.8264e-07
2.80971e-06
6.0485e-07
7.39804e-05
1.57497e-05
0.000152693
0.0114183
1.07097e-05
3.46576e-06
6.62761e-06
0.00742608
8.30005e-05
0.000473491
4.84866e-06
0.000648994
6.20195e-06
5.51947e-09
1.61532e-05
5.93977e-06
8.9692e-05
1.52567e-07
0.00158079
4.95262e-06
3.87462e-07
1.20079e-08
9.22753e-05
0.00032536
1.67193e-06
0.000265933
2.96794e-08
3.43533e-06
4.3106e-05
3.30385e-05
6.83657e-06
8.43797e-05
1.98885e-06
2.5686e-06
0.00013375
2.61348e-06
2.73804e-06
7.9337e-06
0.000284266
7.08192e-09
3.4544e-06
7.13056e-06
0.00097857
4.74783e-05
6.55275e-06
2.4096e-05
7.13931e-06
2.35682e-06
1.63067e-05
7.37234e-06
2.97293e-06
3.03393e-06
3.46961e-07
1.53168e-06
3.67094e-06
1.12156e-05
1.07637e-08
2.10415e-09
0.00239899
1.15289e-07
1.20081e-05
0.000562432
1.29674e-07
1.19414e-05
0.000172295
0.000196184
6.69809e-06
2.07897e-06
2.08557e-06
6.13828e-06
8.37384e-06
6.99361e-05
0.000458179
9.67111e-09
4.07302e-05
0.000224269
2.53558e-06
4.16654e-07
9.56729e-08
2.47294e-07
0.0483072
5.8677e-06
1.36025e-05
5.86119e-06
0.0077816
0.000541525
1.30177e-06
1.31143e-06
0.000715043
0.0309014
1.92243e-07
1.34869e-08
7.32065e-06
7.91399e-09
7.80077e-08
0.000922502
3.30896e-07
1.36071e-07
0.000874643
4.92947e-06
1.4298e-05
0.00231137
0.00048849
6.96129e-08
0.000254632
8.62203e-06
7.64786e-07
4.35959e-06
1.83647e-06
1.06399e-05
1.58583e-07
0.000284077
5.95135e-07
4.3328e-05
0.000765562
8.44671e-06
6.036e-07
0.000533855
8.42538e-07
9.59116e-06
1.92758e-05
0.000538626
8.16503e-05
1.99472e-05
0.000239754
1.42243e-05
1.27689e-06
1.5448e-05
3.03318e-07
2.55341e-06
3.68993e-06
5.68866e-06
0.000544203
2.01129e-05
5.8677e-06
3.60136e-07
0.00083424
0.000842286
9.26668e-08
1.16849e-07
0.000788477
3.77963e-05
6.94957e-08
6.50523e-05
2.57569e-06
0.000285152
4.13786e-06
1.68935e-06
7.37521e-06
6.17305e-06
5.15521e-06
1.31057e-07
30.7164
2.5123e-06
0.00102559
4.55472e-06
1.57914e-05
0.00103067
9.38877e-06
1.35985e-07
4.1255e-05
1.90961e-06
8.343e-05
3.39514e-07
0.000936856
3.88242e-08
9.21317e-06
1.2008e-05
6.39199e-06
4.38679e-07
4.52602e-06
2.07465e-06
0.000528946
2.89229e-06
8.85699e-09
3.75783e-06
1.47392e-06
4.75038e-06
0.000531654
0.000940805
7.91703e-06
0.00136248
0.000297839
0.00583373
1.92681e-05
1.79914e-06
3.01193e-06
0.000859568
4.73917e-06
2.34184e-10
3.65309e-06
6.08755e-06
1.22498e-06
9.27217e-09
8.74931e-06
7.70563e-06
1.06087e-05
3.3744e-06
0.000395322
6.70239e-07
1.9155e-08
8.29056e-06
0.000330183
4.20076e-06
1.84817e-08
0.000254023
1.95593e-06
1.57589e-05
2.14645e-07
4.2686e-07
5.80137e-05
1.62356e-06
3.383e-07
1.4314e-06
1.68356e-05
0.00112869
7.69173e-06
0.000282049
0.000242184
2.13876e-05
5.78041e-06
5.5925e-06
1.00631e-10
7.6898e-08
7.048e-06
1.77825e-05
5.48397e-09
4.363e-08
8.71722e-10
8.02797e-06
0.000671338
0.000307921
0.0010151
1.38412e-05
5.00604e-06
4.8085e-07
0.000634548
6.39976e-06
0.00104959
2.48269e-06
3.50038e-06
3.25962e-07
2.31127e-06
2.90958e-08
1.99833e-05
6.74164e-06
4.24581e-06
3.42199e-06
4.79731e-06
5.44188e-07
8.39197e-05
0.00087426
1.83482e-06
6.99167e-07
9.06556e-06
5.01102e-06
1.50231e-06
2.20333e-08
1.96803e-06
1.46504e-06
3.16087e-06
56.2221
6.32328e-06
6.23242e-06
1.06677e-05
0.000844896
0.000967263
0.000691115
6.61737e-06
1.08208e-06
4.19249e-05
0.000998261
2.79823e-06
5.32681e-06
3.40837e-07
1.15267e-05
4.50251e-08
4.23448e-07
2.05715e-05
8.50653e-08
1.10551e-05
7.96455e-08
0.000223646
7.8554e-06
2.58159e-05
5.93004e-06
5.39761e-06
6.62294e-06
6.67513e-06
0.000536708
6.6883e-06
5.99563e-05
5.31706e-06
0.000989509
0.00076902
1.26067e-07
2.1816e-08
4.20602e-06
1.46276e-08
6.95733e-07
7.32002e-06
1.77627e-05
0.00105668
3.21662e-06
0.0009852
1.12378e-07
1.03722e-05
1.49328e-06
1.2183e-05
1.24193e-05
0.222835
0.000120676
1.25961e-06
2.84904e-05
1.65678e-05
8.3192e-07
0.000250301
2.73657e-06
3.64983e-06
8.17475e-06
5.23904e-09
0.0259081
5.15623e-06
0.00199804
1.248e-06
2.50108e-07
7.45034e-08
1.53446e-05
7.35832e-06
2.32894e-05
5.57563e-07
0.000890283
0.000258248
4.74454e-11
5.47034e-08
1.13013e-05
5.8873e-06
1.66229e-06
0.000137967
4.00509e-06
2.75256e-05
1.14219e-05
9.01883e-05
0.00118313
0.000125165
5.80632e-06
4.74473e-07
3.65284e-06
3.7799e-06
1.91372e-05
4.41802e-06
2.97789e-05
0.000155439
1.53069e-05
0.000131804
2.14979e-05
5.91635e-08
3.53626e-07
8.0554e-05
2.07135e-05
0.000111293
3.48886e-08
0.00104512
0.000834554
3.12024e-06
1.59868e-05
1.02009e-07
1.69729e-06
2.97537e-08
4.70021e-05
7.45065e-06
6.56644e-07
4.70944e-06
1.28225e-05
5.70445e-06
0.000921972
1.58812e-05
5.39858e-05
0.00102863
3.15005e-06
5.66536e-07
5.42441e-06
1.32938e-05
3.22512e-06
2.83605e-05
2.6262e-06
6.10216e-06
1.31983e-06
5.80956e-07
6.69381e-07
5.09241e-11
1.09713e-06
3.63997e-07
0.000817235
5.94021e-08
4.05792e-06
3.735e-06
6.96889e-06
8.16382e-07
3.29142e-07
1.31664e-08
1.16656e-08
4.86545e-06
0.000943237
8.41151e-08
2.58318e-06
0.00118061
2.83118e-06
1.20066e-05
1.46321e-06
1.62593e-05
0.000747417
4.3415e-08
0.0062388
0.000907642
4.58951e-06
1.06899e-09
6.1952
2.15196e-06
7.77452e-06
1.29768e-05
0.000468636
6.03997e-06
3.17949e-06
2.89435e-05
1.61351e-05
6.02123e-06
7.74096e-07
1.87118e-05
0.00205398
0.00020747
5.67306e-06
0.000695956
5.92968e-05
6.60706e-09
7.58697e-06
0.000332968
0.00117007
0.00121793
2.81901e-06
3.67421e-06
0.000213259
4.3363e-06
3.99131e-06
5.14096e-06
5.70229e-05
0.000741078
3.58745e-07
1.35573e-06
3.56521e-06
4.91224e-06
0.000904182
4.72075e-06
2.60541e-06
1.59487e-05
0.000329347
2.10079e-05
6.57417e-06
0.00175085
0.00809117
0.000808318
0.00285621
6.26724e-08
2.84252e-05
9.13998e-05
6.37788e-05
1.07645e-05
1.57456e-05
3.04073e-06
3.92713e-06
0.000917096
6.1971e-09
2.49117e-05
0.000975857
2.93368e-06
0.00277413
0.000664255
0.000585933
36.9272
9.40794e-07
2.37496e-06
1.26757e-05
1.08825e-05
0.000249064
7.92139e-05
7.90557e-08
1.34283e-08
8.81397e-06
1.14584e-05
6.2661e-06
1.36859e-05
7.08217e-06
0.00102218
1.70298e-06
5.99352e-06
9.07676e-06
2.59045e-08
8.31777e-06
0.00112447
2.67139e-06
7.18572e-07
0.000222268
6.0361e-05
4.25562e-06
3.28366e-06
6.82242e-06
8.65398e-06
4.31072e-06
6.09463e-07
2.19801e-05
8.47629e-07
0.0005115
0.215223
0.00185691
2.66533e-06
1.10174e-06
1.10484e-06
8.06625e-05
8.23149e-07
1.75011e-05
1.01053e-05
2.45316e-05
5.64097e-06
0.000306213
0.000834101
6.33399e-06
5.44206e-06
4.77266e-07
8.02807e-10
0.000430918
1.22445e-05
7.57307e-06
15.5154
4.71789e-06
4.21699e-06
5.10971e-06
0.00202435
6.15756e-06
7.38428e-06
0.000837354
2.469e-06
0.000136422
1.44497e-06
5.66917e-05
3.30361e-05
0.0022889
1.17661e-05
1.96701e-05
4.62038e-06
1.78332e-06
0.000890173
2.02179e-06
2.541e-06
3.63203e-06
6.76706e-05
7.82165e-06
0.0012955
6.98965e-05
0.000553876
1.42692e-05
3.31723e-06
2.57937e-06
1.20742e-05
0.000133252
8.59534e-08
3.98449e-06
0.0199416
0.000828022
4.4324e-07
0.000149728
1.04087e-07
1.87773e-05
2.29806e-06
0.000352263
1.42038e-06
1.01433e-07
0.0012744
0.00109194
1.99169e-06
8.84965e-06
0.00156141
2.18022e-08
2.312e-05
1.1075e-05
7.10867e-06
1.99683e-05
7.72219e-08
2.78275e-06
1.24817e-05
0.00047033
6.01412e-06
6.18877e-05
0.00101618
5.50762e-05
2.75966e-09
1.01878e-05
3.84141e-06
1.62281e-05
0.00713991
2.88819e-05
0.000359228
0.0130638
1.50459e-05
6.57642e-06
3.58577e-06
0.00210702
3.81937e-07
4.03373e-06
4.52942e-06
1.12087e-05
0.00161552
8.98593e-08
1.26028e-05
1.83803e-06
0.000131838
0.000481718
8.64724e-06
0.000890195
1.12557e-07
3.21023e-06
0.00036611
0.000527975
2.23687e-05
0.0215698
6.43027e-08
7.91045e-09
3.85703e-07
0.000126346
1.8986e-05
3.31136e-07
1.79261e-05
1.73347e-06
0.0176276
5.04893e-07
1.85615e-07
2.53825e-06
6.80246e-08
0.000241893
0.000222556
3.51521e-06
0.000656638
5.94008e-06
6.20582e-06
0.000212736
6.77799e-06
8.29692e-05
1.31537e-05
1.49254e-05
2.68352e-06
1.44224e-05
1.49851e-08
0.000145113
4.85066e-06
8.97365e-08
5.695e-05
7.24853e-06
2.30909e-06
2.82254e-06
4.90107e-08
0.00129072
9.48654e-07
0.00145191
5.76294e-06
4.29035e-06
1.05435e-05
0.00029159
0.000819677
1.59202e-05
0.000697294
0.000866973
1.66504e-05
1.68907e-05
17.0969
9.11874e-05
9.57778e-09
6.81467e-06
0.000689789
5.68941e-05
5.14903e-06
0.00163961
0.00061543
0.000500458
0.00110196
1.37789e-07
1.45914e-08
1.26313e-07
8.00975e-06
9.2955e-08
5.7101e-05
0.00101104
7.59993e-07
0.00102153
2.25187e-07
8.39401e-08
1.74189e-06
0.000846534
0.00055084
1.42366e-05
5.43851e-06
0.000867106
3.89299e-06
3.4094e-07
7.24409e-06
1.56079e-07
0.0348319
3.64291e-06
0.000439351
0.00013695
1.44778e-05
0.000208432
1.72827e-05
9.22949e-07
5.89712e-06
2.75292
9.09877e-06
0.000502139
8.70382e-06
6.04186e-07
3.88971e-06
0.00323897
0.00255227
5.99367e-08
6.98925e-06
0.000901888
2.20644e-06
4.60034e-05
0.000105035
0.000735662
8.98103e-05
7.5953e-06
3.4627e-08
0.000829175
0.000275887
0.00109251
4.50414e-06
0.00217383
1.13763e-05
2.25891e-06
1.60954e-09
2.89776e-06
8.77223e-05
0.000920962
2.19189e-05
0.00068026
5.08209e-06
4.6409e-06
3.89853e-06
0.000146502
4.27386e-06
2.23101e-06
7.00008e-06
1.45482e-05
1.05269e-06
0.000944427
1.92388e-06
4.76188e-06
0.000116988
3.24589e-06
1.75719e-05
0.000409201
4.62193e-05
1.86614e-05
2.35578e-06
5.87791e-06
9.85954e-06
1.00432e-06
1.20216e-07
5.47519e-06
0.0165784
8.7782e-08
1.02233e-07
1.68317e-05
2.84438e-06
1.05879e-05
1.31148e-05
0.0007485
0.000133161
8.71513e-06
4.656e-07
3.65997e-08
0.0122239
7.13295e-06
2.75973e-06
6.74055e-06
0.000962899
2.57946e-06
0.00104148
0.00092106
2.15078e-08
0.00096049
0.000384437
5.4417e-07
4.62428e-06
0.000191825
1.26082e-05
3.96612e-06
2.29962e-08
3.10821e-08
9.1749e-09
1.67147e-08
1.20738e-08
7.56104e-09
3.32909e-08
2.08073e-08
2.65462e-08
1.61683e-05
8.42691e-05
5.97181e-07
8.6973e-08
0.000919818
5.32659e-07
23.7022
1.42986e-06
8.89425e-08
9.15613e-06
1.48396e-08
0.000970567
5.86653e-07
1.15984e-05
1.11869e-06
1.5634e-05
1.29028e-05
2.21051e-07
6.61431e-05
6.86263e-06
1.4243e-05
3.00418e-06
9.01652e-06
7.85388e-05
1.22413e-05
1.48503e-05
5.32587e-09
8.27198e-07
5.9147e-06
0.000173178
9.71889e-06
1.44524e-05
0.00126703
3.85416e-06
5.09202e-06
3.2711e-06
1.62671e-08
1.6759e-07
3.13175e-06
7.65505e-06
1.66982e-06
6.60057e-07
0.000675655
2.25547e-07
0.0049287
9.87905e-06
0.00015322
0.000274667
3.81268e-06
0.00460459
5.76121e-05
7.07744e-06
7.35089e-09
5.08269e-05
2.31514e-07
0.000818743
0.00130545
3.81474e-06
4.74721e-06
2.98506e-06
2.08184e-06
0.0041589
1.29893e-05
5.56883e-06
7.65434e-06
0.000246208
9.30302e-06
9.47865e-08
0.000105762
1.16455e-06
5.02509e-06
1.34625e-05
2.80922e-07
2.94232e-05
5.24231e-06
5.81491e-06
2.94187e-05
1.46374e-05
3.35247e-06
0.000745386
7.7622e-06
0.00117832
0.00445872
0.00095605
0.00107966
7.13713e-06
4.26227e-08
1.16905e-05
0.000536768
2.00999e-06
2.04193e-06
5.02632e-06
4.40643e-06
0.000193842
1.63209e-08
1.18225e-07
1.14924e-05
0.000892144
0.000153053
3.23225e-06
0.000815112
2.15271
1.98537e-06
6.08443e-05
0.00046114
0.000277941
0.000791244
8.43062e-08
0.00438873
8.01308e-06
7.26161e-06
0.000904499
0.00214357
2.56191e-06
1.89671e-06
1.9823e-06
1.76465e-12
1.16235e-05
2.29223e-05
2.34081e-07
1.47521e-06
8.87481e-09
0.000251745
5.81027e-07
8.24337e-06
5.30446e-05
2.94902e-06
3.57795e-06
2.00338e-06
1.23532e-05
0.000908071
1.56802e-05
5.53208e-07
8.57364e-06
2.96599e-06
1.61791e-05
3.42005e-05
2.93962e-06
0.000941618
1.70056e-06
9.91265e-06
3.0237e-06
7.17082e-07
5.99873e-07
3.56561e-05
5.00302e-06
0.000882378
1.46561
3.54561e-06
0.000417047
4.6871e-06
1.7527e-05
2.00045e-06
9.98772e-07
7.22738e-06
1.55494e-06
0.000452106
5.91993e-06
0.000181004
7.79589e-06
1.55828e-05
9.6026e-06
8.46722e-06
0.00113626
4.26831e-06
6.8955e-06
3.12683e-07
1.01993e-06
8.14657e-05
6.74995e-08
1.78544e-06
8.16022e-07
1.64004e-05
1.5577e-05
4.16031e-06
0.000222824
1.26404e-05
5.06906e-06
0.000139057
0.00201429
6.49288e-06
1.34371e-05
0.000123616
6.49795e-05
0.000101867
0.00112626
0.000986501
0.000591827
1.6743e-08
1.0996e-05
2.37235e-12
0.0010683
4.35558e-07
8.68286e-06
1.3646e-05
5.18245e-05
2.15905e-05
0.000335953
7.04714e-06
1.303e-05
0.000205012
2.70797e-05
0.000971833
2.14654e-05
0.000239722
0.000812442
8.17479e-07
6.12955e-06
2.86633e-06
6.31622e-05
2.6881e-07
3.74432e-07
1.4611e-06
2.25774e-06
1.06382e-05
2.43085e-05
9.172e-07
8.84585e-07
5.9228e-06
1.23232e-05
4.48481e-08
2.40065e-07
5.56848e-06
6.17274e-06
0.000368771
4.66082e-05
2.17646e-05
1.71994e-06
0.000578008
0.00030093
1.40611e-05
0.000830148
1.52129e-05
9.00962e-06
0.000963943
0.00192213
0.061667
2.40512e-06
0.000103395
0.000375078
9.9126e-06
0.000576923
0.000781428
8.19933e-06
6.37912e-07
1.17743e-06
1.97257e-06
8.34836e-08
1.02673e-05
7.04328e-08
1.6302e-07
0.00329945
0.00244869
6.08847e-06
0.00111989
1.31395e-05
3.70613e-06
0.000158034
3.69594e-06
2.77809e-05
0.00179105
1.12055e-05
1.57827e-05
2.26786e-06
2.39634e-06
0.0218283
1.03221e-05
0.000179901
2.38529e-05
5.60702e-06
4.94585e-07
1.91456e-07
1.12874e-05
0.000866435
2.21336e-06
1.13333e-05
0.618507
5.89152e-09
0.000360274
3.88086e-06
0.00052304
2.90906e-06
0.000209268
3.95781e-05
9.44639e-06
2.10527e-06
8.91555e-06
6.75378e-06
0.000952888
2.64634e-06
2.086e-06
2.1972e-05
7.34701e-06
0.000217301
5.30695e-06
7.65046e-06
2.56925e-07
1.70141e-07
0.00117674
0.000848003
1.85207e-05
1.11632e-05
1.14225e-05
9.62861e-06
1.35477e-05
2.75994e-06
0.0004966
1.19007e-07
6.65921e-06
0.000632425
8.98436e-06
0.0132355
1.50166e-05
9.17494e-06
2.75161e-08
0.0017087
7.31266e-06
2.47313e-06
1.94443e-06
4.61131e-08
1.6262e-05
3.4956e-06
1.19892e-05
2.04511e-05
1.43316e-06
2.27685e-05
7.19586e-07
1.97932e-06
3.68785e-06
2.2977e-06
2.14855e-06
8.23526e-06
1.18671e-06
1.33285e-07
1.50474e-07
1.47963e-05
2.20057e-06
6.95842e-07
0.000407387
2.33652e-06
3.13235e-06
0.00267756
3.7859e-05
2.08489e-06
0.00122842
0.0022043
1.62999e-05
5.39815e-06
0.000240761
0.00170769
2.92949e-06
0.000173132
0.00212303
1.63213e-05
0.00242274
1.33352e-08
6.26302e-06
1.8024e-08
1.64994e-07
1.1538e-05
0.000152556
4.41942e-07
8.96505e-06
2.04579e-05
0.00014176
8.46331e-06
3.98741e-08
5.85441e-06
4.46782e-06
4.75012e-06
5.60418e-09
7.89252e-06
3.10982e-06
1.52375e-07
4.87549e-06
9.03045e-08
0.000576815
0.000982394
2.57806e-06
1.02166e-07
0.000111707
3.81224e-05
0.000699537
0.000107503
1.08135e-05
1.67612e-05
2.94177e-06
0.000133624
4.25794e-07
6.33613e-05
6.45048e-06
5.82288e-09
2.69244e-06
4.98166e-06
4.62022e-07
5.73278e-06
3.28077e-07
1.35075e-05
0.00138734
6.02653e-06
3.93848e-06
2.51884e-06
2.84015e-05
6.57295e-06
1.03015e-05
0.0189463
8.0685e-06
5.87479e-06
1.48053e-07
3.33407e-06
2.24187e-06
0.00011746
6.30437e-06
0.00166069
0.00102164
0.00140763
1.05559e-07
0.000286822
6.02418e-08
3.7966e-08
1.13466e-05
6.34473e-08
4.77464e-06
7.46757e-06
3.68862e-06
5.26133e-06
1.04771e-05
2.01436e-07
5.65728e-06
1.09143e-07
0.00190867
2.55615e-06
1.21322e-05
7.91825e-08
0.00022993
9.10011e-06
3.67815e-06
0.00152399
0.00262702
2.09595e-09
0.00167422
1.20647e-07
3.76382e-06
2.01458e-06
7.991e-06
5.85409e-06
4.40218e-06
3.75199e-06
0.000872316
2.9138e-06
8.39497e-06
3.27185e-05
8.72057e-06
1.09242e-07
5.85388e-06
7.35846e-06
9.49788e-06
0.00121715
1.39664e-05
3.66951e-06
0.000374895
2.07243e-06
1.15562e-05
6.07411e-06
1.45923e-05
0.000249123
0.0010729
8.78427e-08
0.000132155
7.61803e-08
1.94301e-06
0.000170726
2.85788e-05
1.21071e-05
6.57112e-08
1.97573e-06
4.50797e-06
7.49153e-06
3.39853e-05
0.000206739
9.31686e-07
3.70244e-06
6.28182e-06
1.00115e-05
0.000226073
3.852e-06
0.216293
5.5588e-05
1.52777e-07
1.32216e-05
3.73772e-07
3.64082e-09
4.22975e-06
2.65904e-08
1.42571e-06
0.000974093
3.17844e-06
2.09706e-05
0.0110678
7.34955e-07
0.000806276
0.00321123
0.000826283
8.61945e-06
6.16935e-06
6.79258e-06
7.50337e-07
0.000298353
2.35052e-07
1.00005e-06
5.77839e-06
5.49408e-06
0.000179812
8.74382e-06
1.35256e-05
3.7552e-06
0.00158094
0.000817947
5.25108e-06
7.65772e-06
8.95525e-06
3.27907e-07
3.82771e-12
0.00022982
1.29903e-07
2.7599e-12
1.62202e-06
2.57052e-06
2.24371e-06
1.4433e-05
0.000224138
6.01117e-06
9.78312e-06
2.32387e-06
1.74203e-05
1.3935e-07
8.59475e-06
4.7657e-05
7.83408e-06
3.98569e-06
5.65391e-07
0.000152806
1.16123e-07
9.90793e-08
5.05889e-07
0.000280444
0.000218859
1.94794e-05
8.84079e-05
0.00101622
1.48443e-05
2.2922e-08
0.000961741
7.43571e-07
5.13863e-07
6.80985e-08
3.8912e-07
0.000224244
0.000364651
0.000134997
1.52701e-05
2.17989e-06
8.52104e-07
6.47289e-06
5.98936e-06
1.31218e-07
7.70494e-05
2.58186e-05
0.000670173
0.00110568
7.49024e-06
1.38808e-06
5.25285e-09
0.000514774
7.88167e-06
1.46408e-05
5.99344e-08
3.50008e-07
1.38872e-05
0.000725833
0.000790353
6.68902e-06
9.8321e-06
0.000241893
3.50227e-06
1.73785e-06
0.00133171
5.83175e-08
3.18249e-06
0.000860666
0.0020587
3.17872e-07
0.000981923
4.19327e-06
0.000617502
6.85554e-08
8.79118e-08
1.32018e-06
5.89005e-06
2.78487e-06
0.0011698
5.60468e-06
9.1407e-09
3.9051e-06
6.47454e-06
4.73564e-06
5.75004e-08
2.6225e-06
1.10421e-05
1.34104e-05
8.83884e-07
0.000328081
2.36745e-06
1.37197e-06
3.87811e-06
1.76148e-06
2.8014e-08
0.00103826
3.1825e-07
1.23131e-05
5.33859e-11
1.05643e-05
0.00014679
1.64607e-08
0.000925954
0.000873574
0.00256345
9.29406e-09
3.63561e-06
6.22963e-07
5.04836e-07
8.50304e-06
4.47108e-06
8.91991e-06
0.00259188
4.6346e-08
5.44707e-06
7.70323e-06
5.37934e-06
6.51116e-06
2.5349e-06
0.000607446
5.85659e-06