/*--------------------------------*- C++ -*----------------------------------*\
  =========                 |
  \\      /  F ield         | OpenFOAM: The Open Source CFD Toolbox
   \\    /   O peration     | Website:  https://openfoam.org
    \\  /    A nd           | Version:  8
     \\/     M anipulation  |
\*---------------------------------------------------------------------------*/
FoamFile
{
    version     2.0;
    format      ascii;
    class       volScalarField;
    location    "6e-05";
    object      epsilon;
}
// * * * * * * * * * * * * * * * * * * * * * * * * * * * * * * * * * * * * * //

dimensions      [0 2 -3 0 0 0 0];

internalField   nonuniform List<scalar> 
23640
(
7.39634e+08
7.31642e+09
4.36055e+07
3.25617e+09
5.29126e+09
2.57165e+10
3.33154e+09
2.43887e+09
2.77689e+10
1.33403e+11
5.27395e+09
1.05825e+10
5.7109e+08
4.71137e+09
1.46065e+11
1.96232e+10
3.51211e+08
3.94369e+10
1.434e+10
3.11273e+10
7.62995e+09
1.97178e+08
7.83076e+09
2.09707e+10
3.80371e+09
5.05012e+09
4.73664e+10
3.0366e+10
1.66944e+08
1.41999e+09
3.7072e+08
1.14011e+09
7.65919e+09
2.02458e+10
3.46644e+10
2.00629e+11
3.6906e+08
2.4512e+08
1.15259e+09
9.22275e+09
1.4726e+10
2.57386e+10
4.22057e+09
7.83187e+08
2.81021e+09
7.71572e+10
4.73374e+08
8.50078e+09
1.29547e+11
2.44788e+09
2.21627e+08
3.0118e+10
2.43515e+11
2.69269e+08
3.20422e+09
2.05818e+11
2.87293e+10
8.06977e+09
1.35783e+09
5.47966e+09
3.59181e+08
5.49386e+10
3.52958e+09
2.71281e+10
1.78273e+09
2.76477e+10
1.58901e+10
4.4474e+09
7.71729e+10
4.30086e+09
8.25941e+09
1.99117e+10
1.66194e+10
2.99036e+08
2.27401e+10
4.19563e+09
6.68099e+11
5.491e+08
1.38541e+10
3.5202e+09
7.99954e+10
6.83038e+10
2.07384e+09
2.15038e+09
1.71565e+09
2.25746e+11
3.09958e+10
2.8918e+10
3.17883e+10
1.25201e+11
2.04305e+09
8.08577e+09
7.52706e+10
1.44968e+10
2.95448e+10
9.84527e+08
2.55443e+10
1.84966e+11
7.52964e+09
1.0251e+11
6.29708e+10
2.58509e+08
3.25224e+10
2.66429e+08
2.85655e+10
2.34543e+08
6.43831e+09
1.78567e+08
1.16281e+10
8.84282e+09
3.06987e+08
1.59379e+10
1.19339e+10
1.45535e+10
2.78283e+11
1.31479e+08
1.53665e+11
2.67994e+08
6.89922e+08
1.46816e+09
5.24793e+10
9.93645e+08
2.08345e+11
9.28816e+08
5.12325e+10
1.42781e+10
1.70847e+08
1.17063e+11
2.59045e+10
1.36814e+10
3.10905e+10
5.5824e+10
5.62876e+08
5.17155e+10
3.08698e+08
3.73406e+10
6.02962e+09
4.13885e+09
5.46604e+09
2.27394e+10
8.1807e+09
3.01801e+10
1.82851e+10
5.22446e+09
2.4366e+10
6.0823e+09
4.68515e+09
6.82745e+09
2.18824e+09
7.98066e+10
2.60457e+09
4.99441e+10
2.34258e+09
3.091e+09
4.63284e+10
1.90384e+08
3.37189e+09
1.61389e+10
1.3375e+10
4.75833e+10
1.16011e+11
2.58362e+11
2.13657e+11
9.9692e+09
9.62031e+07
7.5728e+07
6.93333e+09
1.46568e+11
5.85036e+09
5.38642e+10
8.02506e+09
2.67343e+11
2.10116e+10
1.15181e+10
4.17579e+09
4.53588e+09
1.36604e+10
3.08889e+11
3.50554e+09
1.43296e+09
2.78028e+09
1.29304e+11
4.03954e+09
2.94382e+10
2.01139e+08
5.11616e+10
4.8869e+10
6.03743e+10
7.33736e+09
3.17137e+10
2.6462e+10
5.19826e+09
1.31031e+09
2.31785e+09
1.69516e+08
1.29405e+10
2.89468e+10
7.24479e+10
1.00569e+11
7.40639e+10
8.90591e+09
2.88823e+08
2.99023e+08
2.48088e+10
1.16307e+10
1.57275e+09
1.06924e+11
7.82623e+09
2.22362e+11
6.19795e+09
5.00417e+09
4.48787e+09
9.46044e+08
1.6041e+09
5.57784e+10
8.58471e+09
1.0156e+10
3.02442e+10
7.80562e+09
2.87536e+08
9.74097e+08
5.34927e+09
8.80225e+09
1.12389e+10
1.93021e+10
1.11337e+10
7.05891e+09
1.00576e+09
3.59153e+08
2.0302e+09
7.69106e+08
1.84617e+08
2.71651e+10
4.83823e+09
1.56544e+10
6.71757e+10
7.92638e+09
8.77744e+09
2.19715e+09
1.11722e+11
6.49856e+10
1.49666e+11
1.49152e+10
2.24021e+10
3.19243e+09
1.88652e+08
1.78307e+09
2.10686e+11
3.2703e+09
1.82934e+10
5.05811e+09
6.05431e+09
4.66355e+08
4.29376e+09
1.34706e+09
9.00258e+09
1.68886e+08
2.05303e+08
5.49589e+09
6.0738e+09
3.22132e+09
3.24008e+08
5.7698e+10
1.07698e+10
2.03318e+08
4.09871e+09
4.82007e+10
6.99377e+09
1.35721e+09
3.39346e+10
5.94534e+10
1.03696e+08
7.38257e+10
6.50761e+09
1.25521e+11
1.92306e+10
1.98053e+08
1.02939e+09
2.6137e+10
1.11915e+10
1.49696e+10
2.40633e+08
5.74908e+10
4.83709e+09
1.3071e+10
5.98323e+10
5.7534e+09
9.20821e+10
6.21416e+09
4.92364e+09
1.59574e+09
2.63568e+08
8.47625e+09
7.72324e+09
5.57793e+09
4.20807e+09
1.21867e+10
3.1385e+08
6.1919e+09
6.00644e+08
1.50309e+11
2.60596e+10
8.72536e+08
7.84044e+09
6.44245e+09
9.61999e+07
5.89958e+10
7.07163e+10
3.20023e+09
1.87495e+10
1.41613e+08
9.41129e+10
4.14903e+09
1.41348e+10
9.23635e+09
4.86248e+10
5.68963e+10
7.49977e+07
2.86569e+10
1.54858e+10
1.05488e+09
1.87834e+10
3.51276e+10
2.98689e+10
3.19745e+08
1.30955e+11
4.80168e+10
4.33222e+09
1.81133e+09
3.87347e+08
7.05289e+10
2.4032e+09
3.01875e+10
4.1045e+10
4.29251e+09
7.43098e+09
9.91699e+10
5.28668e+10
4.0068e+09
6.03315e+09
2.56072e+11
2.85405e+10
4.43734e+10
1.16605e+09
5.70678e+09
4.24349e+10
5.84125e+10
9.36588e+09
1.09589e+10
2.64545e+10
5.88241e+09
1.26594e+11
1.87973e+08
2.59529e+08
3.32089e+10
7.88291e+07
2.16736e+09
2.92838e+08
3.63215e+09
5.25833e+09
4.80683e+10
6.60224e+09
2.31992e+10
5.43598e+08
8.57985e+09
1.18174e+08
8.14547e+07
6.87986e+10
1.38586e+10
1.33261e+09
2.30499e+11
8.85306e+10
1.39318e+08
8.96972e+09
5.04954e+10
1.80465e+08
9.48363e+09
2.1851e+08
4.42098e+09
4.64938e+10
1.61543e+10
8.86831e+10
8.1001e+09
2.71188e+10
9.90606e+09
2.8252e+08
1.12848e+11
6.66582e+07
1.13303e+10
1.14856e+08
3.60559e+10
4.81487e+10
3.91966e+11
2.33129e+11
6.10413e+10
1.33703e+10
1.15164e+09
3.00772e+08
4.59832e+08
6.54707e+10
2.23926e+09
1.73802e+10
3.93863e+10
1.05082e+08
5.51286e+08
6.40441e+09
4.53118e+09
1.72456e+08
1.03256e+11
1.38921e+10
7.34628e+10
3.2881e+09
4.88703e+09
4.2024e+10
4.61537e+09
1.41449e+10
6.12987e+10
6.85296e+08
3.65296e+10
2.39828e+10
5.24618e+09
3.60453e+10
6.18169e+09
7.81409e+10
1.46886e+11
9.98165e+07
1.10486e+09
2.22196e+11
6.50415e+09
5.24296e+09
2.74485e+08
2.67741e+09
6.17612e+09
8.35622e+09
3.91081e+10
5.56759e+09
2.18242e+11
1.28445e+11
1.38307e+11
1.23314e+10
4.21745e+10
3.84813e+09
1.70373e+11
1.60451e+11
4.19183e+10
1.04016e+10
6.2975e+10
6.63352e+10
7.56767e+09
6.93785e+10
1.73213e+06
1.58933e+10
4.15422e+09
4.64526e+10
6.66791e+10
2.87994e+08
4.81591e+09
5.67656e+10
7.22617e+09
9.22978e+10
3.49896e+10
1.27433e+10
1.36612e+10
1.14318e+07
1.10658e+11
1.48133e+09
1.46194e+11
2.75858e+11
8.58972e+10
2.71304e+10
2.97792e+10
1.3721e+09
3.11161e+09
1.85576e+08
1.90899e+09
6.23383e+10
4.3555e+09
5.62574e+07
9.04037e+10
5.86726e+09
7.03461e+09
2.31288e+08
2.23745e+10
1.56734e+11
1.15866e+11
2.25342e+11
1.00313e+10
3.32975e+08
3.86919e+08
4.07483e+08
4.58508e+10
9.39483e+09
5.48295e+08
2.07032e+10
4.43925e+09
6.24092e+09
7.26879e+10
8.24116e+10
2.72504e+11
3.3323e+08
9.39671e+08
3.66736e+09
1.02538e+08
6.70755e+09
1.18887e+09
1.34198e+09
5.93755e+10
1.3152e+08
2.59567e+08
5.7506e+08
7.00469e+10
9.92967e+08
2.23959e+11
2.58668e+11
8.79463e+09
1.44097e+10
1.3137e+10
1.66584e+08
2.09958e+10
4.43307e+09
7.57779e+10
3.9369e+10
1.10448e+06
1.696e+11
6.81985e+09
1.22517e+10
1.01946e+10
3.67713e+10
1.56434e+10
1.32674e+09
7.28365e+09
1.7601e+10
9.31189e+10
8.21042e+10
3.41228e+11
7.06463e+08
2.2546e+11
5.56061e+10
1.78706e+08
5.56329e+10
7.89129e+09
1.21532e+09
4.56939e+09
6.04901e+09
3.01722e+08
4.06073e+09
1.62287e+11
2.38494e+10
2.69618e+09
2.73969e+09
1.2106e+11
4.96056e+09
3.17373e+11
3.13578e+08
1.39919e+11
8.60827e+08
5.50589e+09
1.45635e+11
6.04246e+09
3.92782e+09
7.0339e+09
6.29595e+09
7.24504e+09
7.57932e+10
2.02133e+10
8.23758e+09
1.76139e+10
1.03666e+10
2.93215e+11
1.10962e+11
2.54398e+06
4.86921e+09
4.3487e+09
2.02475e+08
2.51799e+08
1.40199e+10
2.18274e+11
2.32093e+11
4.02176e+10
4.20827e+08
2.52518e+09
6.09887e+09
2.83042e+08
3.82112e+10
1.37176e+10
2.83501e+10
7.70303e+09
4.01806e+10
4.93239e+09
1.0192e+10
3.28104e+09
3.6771e+09
1.43867e+10
1.93825e+10
1.3314e+09
2.80321e+10
2.90675e+10
5.33382e+10
1.4008e+09
8.9091e+10
4.63884e+09
7.36916e+09
5.99546e+09
9.65311e+10
1.32543e+09
1.44794e+11
6.0636e+10
1.10832e+09
1.33265e+10
1.05225e+10
1.28746e+09
2.72709e+09
9.61453e+09
1.98587e+09
3.1897e+10
6.01104e+10
3.66932e+11
7.94309e+09
2.90232e+08
1.10872e+09
1.18924e+10
1.23746e+10
2.5736e+10
3.25946e+09
5.42584e+09
3.06647e+10
7.19031e+09
8.57742e+09
1.0586e+09
1.66959e+11
1.11877e+08
6.86122e+09
2.06274e+09
1.53087e+09
1.68671e+08
3.28013e+09
9.63604e+08
8.03346e+09
3.01874e+08
1.25188e+11
2.01737e+10
1.97313e+11
6.4662e+09
5.21265e+08
1.32852e+11
6.23417e+09
8.82748e+09
5.45319e+10
2.76982e+08
9.57286e+09
9.04449e+10
1.31852e+09
2.81769e+10
1.95091e+09
2.94715e+10
1.33077e+10
2.60611e+11
9.82924e+09
6.3173e+08
8.4171e+09
2.18451e+10
8.71864e+10
1.32763e+08
1.4618e+11
2.27385e+08
3.15712e+08
1.91846e+09
1.72819e+09
2.50752e+10
1.49391e+10
1.01851e+09
7.42485e+09
7.20817e+09
1.09987e+11
2.49096e+10
2.87933e+08
7.11305e+08
5.07927e+09
4.14875e+08
3.62948e+09
5.80827e+09
4.7801e+09
5.59143e+09
7.28266e+08
1.54531e+10
2.26586e+08
3.9445e+09
1.84936e+10
8.70291e+10
1.07328e+09
1.57372e+08
1.05591e+11
8.23596e+10
3.98567e+09
4.11576e+10
3.17261e+08
9.1574e+10
4.93574e+10
1.07954e+10
1.14496e+10
4.29818e+09
2.57418e+10
2.33264e+10
2.40387e+10
3.39831e+08
3.02242e+10
1.2528e+10
6.07443e+10
6.71059e+09
6.25396e+10
1.40217e+10
1.37331e+10
2.14096e+11
2.94088e+08
2.36702e+08
1.90113e+11
6.24846e+10
5.34639e+09
8.62575e+09
1.43743e+11
4.43187e+10
6.13634e+10
5.59844e+10
2.31885e+08
4.1049e+10
2.02372e+07
2.16879e+08
1.84352e+08
2.30437e+10
3.15767e+09
7.41298e+09
2.94983e+08
3.76317e+09
8.70738e+09
1.58715e+08
1.07183e+10
3.10697e+11
1.45662e+10
3.65631e+09
7.4242e+09
6.80507e+09
1.57198e+10
3.61214e+09
2.10197e+11
1.89526e+08
8.04279e+10
3.09899e+08
9.37151e+10
1.26839e+08
1.0336e+09
4.21117e+10
7.75325e+07
3.51903e+09
8.26473e+08
3.28293e+09
5.39294e+07
4.53563e+10
2.14417e+08
3.25062e+10
9.41765e+09
2.36713e+08
1.34859e+09
8.12088e+10
2.46492e+09
4.10983e+09
1.7936e+11
4.46648e+09
2.04304e+10
2.02219e+10
4.01359e+10
9.05072e+10
1.75229e+10
8.76575e+10
1.25013e+10
2.87672e+10
6.11109e+08
5.48382e+09
3.76288e+09
3.5294e+10
1.52191e+11
4.69842e+10
9.04263e+08
1.244e+08
1.54677e+11
1.87156e+11
1.0313e+10
5.44526e+10
1.14411e+08
3.13889e+10
1.19284e+10
2.1141e+08
1.69956e+11
2.39672e+10
1.08764e+09
3.5944e+08
1.07334e+10
6.57861e+09
3.82929e+09
4.75049e+08
9.86235e+09
1.49149e+10
3.95489e+10
4.42473e+09
2.94504e+08
6.35863e+10
1.1767e+10
5.46592e+09
1.36146e+10
4.39373e+09
9.85253e+08
2.34358e+11
2.08973e+10
5.43162e+09
4.85471e+09
1.40983e+11
3.36057e+10
3.16882e+09
2.8904e+11
1.44577e+11
1.29145e+10
4.37689e+09
4.67182e+11
1.68979e+11
3.06987e+10
1.29234e+11
7.25519e+09
3.19397e+10
3.331e+08
5.26896e+10
7.79819e+10
8.60267e+08
4.51669e+10
3.18983e+08
2.52542e+10
1.22197e+10
4.09242e+09
2.18535e+10
4.04057e+10
1.54883e+08
6.90668e+08
2.52039e+10
2.00167e+10
5.97152e+09
1.87766e+10
1.52959e+08
2.6294e+08
3.09019e+09
8.88755e+08
1.00953e+10
5.32303e+09
1.42817e+09
5.20441e+08
1.18425e+11
1.85547e+09
1.60184e+10
2.38652e+06
7.09359e+09
5.97089e+10
1.64864e+10
8.02735e+10
6.09059e+10
6.7023e+08
1.32183e+09
1.38821e+10
5.12359e+10
5.3757e+08
6.10364e+09
2.85914e+08
2.31202e+09
1.36061e+11
1.48666e+11
6.94508e+09
3.82276e+09
6.07494e+09
1.29595e+08
1.98707e+08
3.85952e+10
2.37564e+11
3.22252e+08
1.07467e+08
4.38472e+10
1.22212e+09
2.57162e+10
4.08967e+08
2.16657e+11
2.97104e+10
3.5721e+09
3.14818e+10
3.90989e+09
2.24506e+09
2.31522e+08
5.08531e+10
1.31444e+10
3.30039e+11
2.83832e+10
4.22843e+10
1.73678e+11
7.93647e+09
3.84825e+08
1.83538e+10
9.39502e+09
1.36471e+11
4.06657e+09
3.97755e+08
6.59344e+10
9.70487e+07
5.87971e+10
9.34066e+09
1.28364e+10
1.8352e+08
1.56881e+11
1.20927e+08
1.38345e+11
4.81247e+10
2.84628e+10
9.95657e+08
4.85315e+10
5.03261e+09
1.07514e+10
3.98182e+09
5.41269e+10
2.80934e+10
1.45566e+09
1.13599e+10
9.22295e+07
1.55502e+11
1.77095e+08
4.17568e+09
2.34428e+11
2.00516e+10
2.57545e+10
1.49457e+10
3.33143e+07
2.25601e+10
3.07985e+09
6.48829e+10
1.78011e+11
1.1081e+09
7.26208e+09
3.47993e+09
3.4095e+11
8.64406e+07
1.11817e+11
3.23654e+10
3.93117e+09
4.28225e+10
5.47932e+09
6.70669e+10
1.4846e+08
3.34026e+08
1.28309e+10
5.41772e+09
2.03688e+08
2.06165e+11
3.49055e+09
1.23587e+09
7.32757e+09
8.8483e+08
5.43694e+09
1.4391e+08
4.83403e+10
1.85117e+09
1.15805e+10
1.51303e+09
1.30142e+10
7.84035e+09
6.04575e+09
1.11127e+10
1.58653e+09
5.01715e+09
7.23472e+09
6.31515e+08
5.24434e+09
4.57557e+09
2.15171e+11
5.91234e+08
1.79802e+10
1.89411e+11
1.88786e+10
4.40967e+09
3.61224e+11
4.07556e+09
1.19037e+10
6.48997e+09
5.2111e+09
1.54636e+10
2.94247e+08
7.24655e+08
9.19581e+09
1.45927e+10
1.25186e+09
3.93688e+09
4.41583e+09
1.82661e+10
7.14496e+09
3.17133e+09
1.00175e+10
1.36557e+09
1.02787e+10
8.68453e+10
2.89582e+10
1.39498e+09
3.54329e+10
3.22602e+10
1.28232e+11
5.67794e+10
1.05137e+11
1.75066e+08
1.87069e+11
2.90512e+11
1.8611e+08
1.24674e+09
2.91021e+08
3.15767e+09
1.88941e+10
4.07879e+10
3.78397e+09
3.4515e+09
2.35237e+10
4.70923e+11
1.31874e+10
2.04094e+09
1.16318e+08
1.16588e+10
3.59831e+10
4.42506e+08
4.75964e+09
5.15139e+09
1.34108e+11
5.50983e+09
1.89505e+10
4.11516e+10
3.42755e+09
2.45524e+10
3.35029e+08
1.68918e+09
6.24746e+08
1.14944e+11
2.06754e+09
4.81889e+08
1.44562e+09
5.22359e+09
2.57494e+11
3.22004e+09
3.56245e+08
8.72183e+10
5.74709e+10
6.2667e+10
2.20265e+09
4.79265e+10
4.73618e+09
8.70619e+09
2.81484e+09
1.44467e+10
1.49487e+10
1.28359e+09
3.35442e+10
2.9285e+09
5.33924e+11
1.70664e+10
1.46798e+10
2.16697e+10
5.61627e+08
3.23055e+09
5.5601e+09
2.13759e+09
2.62047e+08
5.98958e+10
6.38028e+10
5.74312e+10
6.1354e+09
1.10802e+08
1.61702e+11
2.93155e+11
1.67978e+11
3.90302e+09
5.11994e+10
3.52182e+08
3.60725e+09
1.15332e+10
5.58799e+08
2.24648e+11
3.23392e+10
4.89522e+10
2.63867e+11
1.47578e+11
8.40885e+10
1.26797e+10
1.38129e+10
1.57275e+10
2.962e+10
3.76981e+09
1.25999e+09
6.10381e+10
3.07798e+11
1.12805e+09
6.66447e+08
3.5909e+08
1.35302e+11
4.22959e+09
1.00955e+10
1.76071e+08
3.29892e+08
3.15808e+09
2.13068e+08
7.29916e+09
7.37548e+09
5.31832e+08
2.67317e+09
6.23201e+10
2.46288e+10
6.60888e+09
4.03922e+08
4.22666e+08
2.90906e+09
6.59076e+09
7.6297e+10
4.24217e+10
1.78091e+11
3.32665e+10
6.97126e+09
5.48492e+08
1.08955e+09
1.65026e+08
3.03218e+08
7.09667e+08
1.22164e+09
1.97269e+10
1.20601e+09
2.61628e+09
1.39156e+10
3.22848e+11
3.17559e+11
4.35832e+09
1.47867e+09
1.60897e+08
3.10933e+08
4.88968e+09
1.01473e+11
2.03831e+08
2.56881e+10
2.04388e+11
1.33595e+08
5.10171e+09
5.88937e+09
2.04521e+11
3.17246e+09
9.75588e+09
2.75486e+08
4.95608e+10
4.18509e+10
2.92607e+08
1.67405e+09
3.5734e+09
2.0961e+10
1.67886e+08
7.06031e+10
3.74886e+11
3.0562e+10
6.49241e+09
1.91005e+10
1.43433e+11
3.00438e+10
3.13685e+08
1.09387e+11
4.47709e+10
1.98181e+10
3.20399e+10
2.17281e+10
3.97609e+10
2.03811e+10
2.99385e+11
4.63486e+10
3.33962e+11
1.96343e+11
8.47742e+10
1.1442e+09
1.34455e+10
4.22619e+10
3.63973e+09
6.60094e+08
1.44963e+10
1.10597e+10
1.37328e+08
3.441e+08
9.8168e+09
1.62538e+11
8.81428e+07
1.95034e+10
1.11885e+09
2.84234e+10
1.21018e+09
9.77173e+09
4.81829e+09
3.04617e+09
8.05628e+09
2.28451e+08
2.11231e+06
4.94634e+09
4.57285e+09
5.77028e+09
2.38895e+10
4.49351e+09
1.11958e+10
1.35164e+08
3.40122e+10
2.15295e+11
1.40381e+10
3.28759e+11
4.95413e+09
7.37438e+07
1.17414e+10
7.3067e+09
1.09539e+10
1.21421e+09
6.0467e+09
3.77365e+08
3.60424e+10
7.04997e+08
2.18123e+08
5.96276e+09
2.02324e+11
1.27709e+09
4.03007e+10
5.61315e+09
2.70941e+10
3.4495e+09
7.9258e+10
2.97323e+09
4.3442e+10
1.36445e+11
5.79461e+09
1.82099e+10
1.34221e+09
3.32305e+07
4.16756e+09
1.146e+10
2.57711e+08
3.37231e+08
6.65781e+09
1.17762e+10
4.32162e+10
1.84691e+10
6.69644e+09
5.36956e+10
3.14431e+08
5.97015e+09
3.86843e+10
6.983e+09
1.90153e+11
1.49925e+11
2.85838e+11
3.51541e+10
1.75281e+08
1.30689e+11
3.71331e+10
3.19482e+08
1.95024e+09
3.43906e+08
3.3146e+10
4.34814e+09
1.32403e+10
2.76362e+10
3.99154e+10
6.02775e+10
1.24019e+09
6.13689e+09
3.28923e+08
1.61174e+08
1.55891e+09
1.79057e+10
8.66997e+08
3.05215e+11
3.36946e+07
5.48258e+09
4.4255e+09
4.6807e+10
4.47812e+09
1.95046e+10
9.7637e+08
5.89991e+10
3.577e+10
1.54932e+10
6.25456e+09
1.53733e+11
6.71906e+08
3.47407e+08
4.20545e+08
2.09171e+11
3.9401e+10
1.38899e+10
1.25114e+11
1.65219e+11
1.23628e+09
3.52296e+11
5.02897e+10
1.49907e+10
3.39884e+09
2.11362e+08
6.90359e+09
7.90056e+09
3.08883e+08
1.5306e+11
3.65895e+08
3.27466e+08
1.33099e+09
1.184e+06
9.23149e+10
1.45596e+10
3.26153e+10
1.48739e+10
5.55392e+09
4.51527e+09
1.76498e+09
1.41533e+11
3.07189e+10
8.97101e+09
3.3701e+09
1.04885e+10
3.55594e+08
3.17476e+10
2.5578e+08
3.07644e+08
4.03041e+10
1.11379e+08
4.34263e+10
1.88264e+08
7.11254e+09
3.11092e+11
3.97926e+10
3.4929e+09
1.12359e+10
8.48664e+09
1.40136e+10
5.67074e+09
1.79654e+09
9.4447e+10
1.10302e+10
3.64759e+09
3.96546e+09
1.20388e+08
1.08945e+08
8.19843e+08
1.70755e+08
3.13726e+08
3.45207e+10
5.11033e+10
6.1532e+09
1.31538e+11
3.76294e+09
1.40996e+11
2.07564e+10
2.87621e+08
4.23892e+10
2.33919e+10
1.92865e+08
8.2566e+09
7.93058e+10
1.463e+11
5.79942e+10
3.07392e+11
2.00684e+10
5.05883e+08
3.87169e+09
2.13442e+10
1.52822e+09
1.65132e+09
1.94981e+09
3.58528e+09
3.25076e+08
2.04568e+08
1.95611e+08
4.38725e+09
1.22738e+10
7.12021e+10
1.89299e+11
1.46867e+10
6.02608e+09
1.12236e+09
2.68583e+08
2.71245e+09
6.54053e+09
2.97923e+08
6.29797e+10
7.61007e+10
2.39439e+11
3.29281e+10
5.93471e+10
4.01513e+09
4.94684e+10
6.25235e+09
1.93657e+08
2.96112e+10
1.41707e+11
1.41999e+11
5.7272e+09
3.71252e+10
4.77304e+10
1.71809e+10
7.81287e+10
6.75752e+10
2.15723e+08
1.24978e+10
2.75977e+10
1.15617e+11
2.45273e+10
1.0729e+08
4.43011e+09
3.02083e+10
1.28804e+11
5.42544e+09
1.15856e+08
2.85534e+11
2.68625e+08
1.42759e+10
1.02248e+10
2.09255e+08
6.92177e+09
4.37953e+10
3.71965e+09
5.04331e+09
2.44204e+10
7.35245e+10
3.69213e+09
1.26604e+10
1.14377e+10
9.26794e+10
3.32786e+10
1.50304e+10
3.98364e+10
5.70231e+08
7.42771e+09
3.27205e+08
2.12014e+11
4.81761e+08
1.03768e+09
3.28013e+11
3.00163e+08
1.05667e+10
8.20333e+07
6.45395e+09
7.72324e+08
6.90453e+10
1.30816e+10
2.28694e+09
3.75634e+08
1.82095e+08
9.85862e+08
8.45242e+09
2.07048e+11
5.39256e+08
9.91232e+09
5.36157e+08
2.40448e+10
2.02471e+09
6.15855e+10
3.40904e+10
3.2019e+11
2.92307e+09
1.18113e+10
5.81768e+09
7.42405e+07
7.76927e+06
5.43193e+08
2.03383e+10
1.35492e+11
4.73685e+09
5.12917e+09
9.42166e+10
3.41485e+10
5.32502e+09
1.15385e+10
2.21604e+11
5.25463e+10
5.32419e+09
2.34427e+10
7.89316e+09
3.41823e+10
5.88113e+10
6.65209e+08
5.02645e+10
2.78437e+10
4.03095e+09
3.44806e+09
1.5622e+11
4.10024e+09
2.39402e+10
2.16028e+10
1.35306e+11
5.82186e+09
6.48027e+10
6.30596e+09
2.98433e+08
3.49426e+08
3.77789e+09
5.85255e+09
2.69692e+10
6.35002e+09
1.18911e+09
4.56226e+09
5.47616e+09
1.22003e+11
8.53279e+09
3.14139e+09
2.58168e+09
4.0414e+09
6.10766e+09
2.46098e+08
3.91985e+10
2.64253e+10
2.02966e+10
2.24429e+10
5.61216e+10
3.22583e+09
1.18962e+09
2.46232e+10
1.06957e+11
1.13654e+11
1.30891e+10
3.18293e+09
3.24623e+09
8.82468e+09
4.66122e+09
1.85227e+06
2.88404e+08
3.08677e+09
5.9184e+10
2.41372e+10
8.23136e+10
2.1581e+11
2.01036e+08
1.7669e+08
1.28459e+11
2.54245e+09
7.7883e+09
1.96689e+11
1.21004e+10
3.60989e+09
7.62797e+09
1.17181e+10
7.5391e+09
9.81903e+07
1.02848e+11
4.30205e+09
3.07842e+09
6.02375e+08
2.72513e+10
1.21092e+10
5.7173e+10
6.93712e+08
5.24666e+09
1.06698e+11
7.75099e+09
5.47388e+08
3.96923e+10
3.45925e+11
5.582e+09
1.74149e+08
3.71109e+09
1.32136e+10
1.21093e+11
1.86365e+11
5.51742e+10
1.28469e+10
6.03844e+10
2.37638e+09
7.56061e+10
6.12688e+09
6.00229e+09
1.78158e+10
1.76181e+11
4.20494e+10
3.48901e+08
1.59216e+08
1.06378e+10
1.4334e+10
8.55291e+09
4.09569e+06
5.26031e+09
1.08888e+10
1.01645e+11
4.13876e+09
1.5834e+09
1.27559e+10
1.71723e+10
5.04279e+09
6.0315e+10
1.50006e+09
3.74951e+10
3.49034e+10
3.23366e+09
3.74945e+10
2.11697e+10
1.20263e+11
8.20399e+09
2.8204e+10
1.60208e+11
1.19771e+09
8.54091e+10
3.99954e+10
2.201e+10
3.66552e+09
4.10303e+10
3.1245e+10
3.97818e+09
1.6213e+11
5.19123e+09
3.25245e+09
4.88741e+10
1.02511e+08
1.32165e+11
1.61507e+09
2.97553e+10
1.28754e+11
7.59101e+09
1.72051e+09
2.10517e+11
5.60796e+08
5.60532e+10
1.46001e+09
1.76761e+11
3.3968e+09
3.53613e+09
3.84234e+08
5.27891e+10
3.24777e+09
3.65152e+08
3.0832e+10
1.27101e+10
1.18047e+10
6.69984e+10
2.14223e+08
3.22449e+09
1.33662e+10
1.02373e+10
4.88483e+10
5.22818e+10
3.91802e+09
4.77714e+10
2.17997e+09
5.90101e+10
7.33646e+08
4.40994e+10
5.04036e+09
5.42272e+10
6.58314e+09
2.36474e+09
3.69128e+09
9.59636e+09
2.07388e+09
3.11334e+09
3.56847e+08
8.03631e+08
2.13358e+10
8.66218e+09
3.21053e+09
1.41588e+08
1.84146e+10
1.38805e+11
1.13061e+10
4.69613e+09
4.93357e+10
4.7609e+09
2.00037e+08
7.05204e+08
5.23133e+09
2.35433e+10
3.27088e+10
1.50586e+09
2.05252e+08
4.18742e+08
5.93641e+08
5.44503e+10
4.41711e+10
1.10814e+09
1.06283e+11
8.3986e+08
1.86147e+09
3.00995e+08
1.30558e+09
1.17677e+09
2.64997e+08
1.6471e+11
1.42813e+11
6.70706e+08
1.72958e+10
4.03824e+09
1.3138e+10
6.55852e+09
1.08243e+10
5.18262e+10
1.86755e+10
4.46805e+10
3.1388e+09
3.59812e+09
3.15866e+08
2.36343e+10
9.57034e+08
1.56652e+08
3.6161e+10
1.63415e+09
5.19048e+08
1.68298e+11
8.89494e+07
3.64561e+09
1.63458e+09
1.28765e+10
5.92144e+10
2.1209e+09
2.18002e+10
5.73959e+09
9.65504e+09
4.44971e+09
8.49709e+09
1.12849e+10
1.70586e+10
3.56604e+10
3.69857e+06
1.01021e+10
1.63375e+08
9.65161e+09
8.73136e+09
2.14724e+10
1.94697e+09
3.19361e+09
7.20715e+09
6.06462e+09
3.61995e+09
3.99153e+08
1.43248e+08
2.95134e+11
5.38131e+09
9.91832e+10
8.17927e+10
9.14324e+09
3.0814e+11
7.04592e+09
1.36039e+08
2.60841e+08
8.05098e+09
2.06083e+10
5.6039e+09
2.09821e+10
7.16582e+09
5.95494e+09
4.56001e+09
1.76205e+11
1.02062e+11
1.7492e+09
9.7643e+08
3.24959e+09
5.04707e+09
4.91007e+10
6.26715e+10
7.19126e+10
5.91711e+10
2.48654e+11
3.55213e+09
2.0769e+07
7.11944e+09
3.60583e+10
1.6632e+10
5.25299e+08
1.18759e+11
3.32903e+09
3.20199e+09
8.0728e+07
1.6146e+10
2.74313e+10
8.04176e+09
3.17887e+10
9.32659e+09
3.37882e+10
7.41131e+10
5.10548e+10
8.8233e+07
1.17911e+10
4.78289e+10
3.71424e+09
1.98528e+09
4.2234e+09
1.40695e+11
5.10541e+08
1.45189e+08
3.73311e+09
5.05033e+10
3.71645e+09
4.35109e+10
3.40071e+10
7.36964e+10
4.67817e+09
1.78044e+10
4.80611e+10
7.32028e+09
2.18156e+11
5.57656e+09
2.16597e+10
7.56999e+10
8.31955e+09
2.16869e+11
3.99728e+10
9.06155e+09
1.01496e+09
1.74584e+10
1.87518e+10
5.08231e+10
4.263e+10
4.30255e+08
4.25661e+09
2.82838e+10
3.07477e+08
1.33749e+08
6.64402e+09
1.7487e+09
9.81243e+10
1.44289e+08
3.63392e+10
5.51216e+08
1.71209e+10
1.93457e+10
3.34086e+10
6.8531e+10
6.45658e+09
2.36923e+08
9.17756e+07
2.14124e+09
4.96533e+10
1.14863e+09
5.43927e+09
1.64605e+10
2.73067e+09
3.86864e+09
3.75595e+09
1.05234e+08
4.43609e+09
6.50026e+09
2.79266e+08
6.76226e+09
8.57515e+09
1.79599e+10
7.83501e+08
9.08523e+07
7.03702e+07
1.47378e+08
9.96755e+07
1.30593e+08
1.31756e+08
7.73518e+07
8.89361e+07
8.30233e+07
2.48668e+10
5.46886e+10
1.69144e+09
1.2232e+08
2.50391e+10
2.90667e+08
2.6716e+06
7.52592e+08
1.70985e+08
1.90857e+10
2.94382e+08
1.01053e+10
3.62656e+08
3.97789e+10
3.00528e+08
3.47817e+10
2.88221e+10
1.37164e+08
1.24539e+10
4.45732e+09
1.95968e+10
8.74518e+10
5.66587e+10
1.09048e+11
1.22191e+10
1.45728e+10
1.17815e+08
1.82209e+11
3.71887e+09
1.88691e+10
7.10171e+10
1.46593e+11
3.41855e+09
7.47435e+08
1.02025e+09
6.10414e+08
5.02793e+08
1.35425e+08
7.25008e+08
2.39854e+10
1.60658e+09
2.17948e+08
4.45473e+09
1.77321e+11
6.77715e+09
9.60699e+09
5.71575e+10
6.525e+09
1.18385e+09
6.68038e+09
4.88279e+10
1.63683e+10
2.02928e+08
9.75094e+10
2.0498e+08
1.02691e+10
3.37963e+09
1.21907e+09
8.04918e+09
1.17699e+09
3.66763e+08
3.15256e+09
1.17286e+11
9.31465e+10
1.52763e+10
2.47332e+10
2.00887e+09
1.71447e+08
1.97057e+10
6.73126e+08
1.62176e+11
3.3985e+10
3.38594e+11
6.44244e+10
6.36721e+10
2.43893e+09
5.49608e+10
4.32438e+10
1.40501e+09
3.35308e+10
3.55716e+10
3.89574e+09
4.18221e+09
8.48477e+09
5.33744e+09
5.65382e+09
2.50662e+08
2.10775e+10
4.99433e+09
1.53936e+11
2.68827e+11
1.00448e+09
6.54617e+09
4.78943e+10
1.69464e+08
3.31612e+08
1.24544e+10
2.55619e+10
4.57367e+10
8.65337e+09
1.621e+10
2.58451e+07
8.32379e+09
8.43263e+10
5.83652e+09
6.37604e+09
1.53221e+10
3.04019e+08
3.12877e+09
4.6383e+10
6.6189e+10
2.48911e+10
3.05698e+09
2.66869e+09
1.91819e+09
3.69758e+09
1.45901e+09
1.15939e+10
2.27582e+10
1.50805e+09
2.75789e+08
1.76474e+11
1.03022e+10
3.18004e+11
1.74687e+11
1.34139e+11
3.23936e+09
1.08468e+11
3.5745e+08
2.00242e+10
3.73624e+09
4.5268e+10
3.23284e+11
3.34773e+09
1.62125e+11
6.36206e+10
3.5954e+10
1.43917e+11
1.00039e+10
3.12175e+08
9.36451e+09
3.4783e+09
2.18596e+08
1.33402e+11
1.39467e+11
6.50908e+10
2.06886e+10
3.3523e+07
6.92002e+08
5.17528e+09
5.12482e+09
3.83232e+10
2.21048e+09
2.95156e+08
9.38627e+09
1.95998e+09
4.8374e+10
1.91024e+10
4.97907e+10
2.02768e+10
5.99415e+09
8.23036e+09
6.05145e+10
3.5769e+09
1.18784e+11
1.76673e+10
6.45459e+08
3.33632e+11
2.05087e+11
2.06553e+11
3.22527e+09
1.79818e+11
3.31205e+10
2.5377e+10
1.16205e+11
6.60837e+09
4.9652e+10
1.00517e+09
7.76466e+09
3.13766e+09
1.27771e+10
4.61571e+09
2.48304e+10
7.9144e+10
5.5865e+10
3.66537e+09
1.4259e+10
3.48909e+10
5.23188e+08
4.03806e+10
1.15687e+09
5.91845e+09
2.63144e+08
3.32141e+10
5.51416e+10
3.40132e+10
4.2272e+10
5.60131e+10
4.34961e+09
7.54173e+10
6.62654e+09
4.02722e+10
1.54529e+10
2.08164e+10
2.09201e+10
1.68051e+10
1.52372e+10
1.00254e+10
3.42326e+09
5.2602e+10
1.51979e+08
4.69028e+08
7.4441e+08
2.75259e+09
8.06243e+10
2.5445e+11
3.07042e+08
5.24581e+08
7.31533e+10
1.13238e+10
3.21687e+08
1.01154e+11
6.94272e+09
4.07576e+09
3.96185e+10
1.48184e+10
2.97632e+10
1.48928e+11
4.19878e+10
5.625e+09
4.19299e+10
2.97986e+10
1.67383e+10
2.3207e+10
1.5161e+10
3.10553e+09
6.20617e+08
2.71401e+09
5.69545e+10
8.78669e+09
7.28705e+10
2.28299e+10
3.17915e+10
3.87847e+10
2.70211e+08
3.33519e+08
9.39548e+08
3.00981e+11
2.38341e+09
2.25809e+08
1.57694e+08
3.35071e+09
3.1483e+09
3.6502e+09
4.04015e+09
1.95245e+10
7.67719e+08
5.3189e+10
1.26125e+11
3.33885e+10
3.13016e+09
9.76422e+09
6.26661e+10
4.10443e+08
2.71415e+09
1.5186e+09
3.356e+10
9.21155e+09
1.50518e+10
1.1047e+10
2.80213e+08
4.70107e+08
2.64288e+09
1.26697e+10
4.68142e+08
2.55128e+09
7.45934e+07
1.26317e+08
9.08384e+09
7.47788e+08
1.00517e+10
2.89835e+10
5.83832e+10
1.2838e+11
1.55477e+10
3.88294e+08
2.38336e+10
5.86927e+10
3.68525e+09
9.96803e+10
3.80768e+08
9.56996e+10
1.61565e+10
4.64588e+10
1.10063e+09
2.84485e+10
1.17358e+09
1.72892e+08
3.49919e+09
9.81512e+09
2.07829e+10
2.54857e+09
1.77278e+10
1.99117e+10
1.98862e+10
3.08801e+10
2.29372e+10
1.72329e+08
4.04079e+10
3.06433e+10
7.29434e+09
2.37729e+09
1.50425e+10
7.70716e+09
1.70268e+11
3.35237e+09
3.32507e+10
2.56144e+09
3.77594e+08
1.99632e+08
4.58691e+09
1.5624e+09
1.81718e+10
2.80097e+10
5.1864e+08
7.80177e+10
2.18104e+08
3.55157e+08
1.47843e+10
2.4298e+11
4.30384e+08
1.24777e+10
1.45296e+11
2.61347e+08
2.01314e+08
2.52373e+10
1.01106e+09
3.9737e+08
5.0225e+09
4.43008e+09
7.03016e+08
3.08523e+09
2.8939e+10
2.72014e+11
3.94095e+09
3.64713e+09
4.69749e+09
8.23401e+10
9.83125e+10
3.32999e+09
1.2991e+11
7.13274e+09
1.21114e+10
6.17205e+09
5.03906e+09
1.47349e+08
1.27157e+10
2.60039e+08
4.42917e+08
2.63402e+09
6.83052e+10
2.19188e+11
7.97183e+09
3.09596e+10
1.11395e+10
5.87061e+09
7.31308e+07
1.20343e+09
6.6163e+09
6.54033e+09
1.12321e+08
3.42168e+09
9.66124e+08
1.98588e+08
1.9751e+11
1.13242e+08
5.46157e+09
4.36895e+09
2.06876e+11
1.43241e+08
1.84645e+10
3.11677e+10
3.284e+10
8.73568e+09
1.9487e+10
4.47282e+10
1.84202e+11
6.21133e+10
3.24777e+08
3.99341e+10
6.2616e+10
1.77162e+08
1.36203e+09
1.04203e+09
1.88059e+08
2.36766e+09
2.23042e+08
1.92038e+10
3.31877e+09
9.8456e+09
5.55959e+09
2.66556e+09
8.80978e+10
3.72465e+10
2.00709e+10
1.5684e+09
1.01362e+10
4.17952e+09
1.41786e+08
3.9503e+09
5.74437e+09
7.89232e+10
2.71783e+09
3.18336e+09
1.27289e+10
3.30269e+09
1.65311e+08
6.20425e+10
2.02807e+08
2.09047e+08
5.0752e+10
9.08541e+10
1.01733e+09
2.00651e+10
4.73023e+10
8.21467e+09
2.1113e+10
4.44501e+08
6.10256e+10
1.65256e+08
9.88001e+09
2.72019e+09
3.43972e+10
1.76642e+08
4.15324e+10
1.39372e+10
3.99048e+09
3.26127e+09
6.79554e+09
4.60525e+07
3.16763e+09
1.3656e+08
4.3656e+09
3.68315e+08
2.05462e+10
1.87292e+10
4.88123e+09
1.3244e+09
3.7988e+09
3.37276e+09
3.86443e+10
1.73426e+11
1.25094e+10
1.51877e+09
6.32922e+09
3.2617e+11
1.40243e+10
3.92098e+09
3.69739e+09
1.29199e+11
7.12604e+09
3.83404e+08
3.8843e+10
3.6705e+09
5.24491e+10
8.36853e+09
5.44666e+09
1.53218e+08
5.0085e+10
2.37753e+08
1.93549e+09
7.11491e+09
4.07732e+10
3.58615e+10
1.0237e+11
2.73023e+11
4.44803e+09
3.72686e+10
3.75651e+10
8.36296e+10
3.07179e+08
1.41066e+10
3.73835e+09
2.09678e+10
8.06696e+10
7.24076e+08
1.84511e+08
4.66103e+10
2.21774e+11
5.2831e+10
2.90549e+08
8.81148e+07
7.24597e+09
3.05287e+08
3.18746e+11
1.43058e+10
4.9833e+09
2.87434e+10
2.26583e+09
2.77474e+08
1.44867e+10
3.10102e+09
6.19172e+09
6.84255e+09
1.33342e+10
3.78734e+09
1.79999e+11
2.97331e+10
1.73793e+11
3.12622e+08
1.18009e+09
6.75494e+09
1.05249e+11
1.88694e+09
3.44665e+09
7.0989e+08
3.23877e+09
1.24724e+10
7.72526e+10
4.66076e+09
1.0653e+10
4.50129e+08
3.23159e+09
4.59428e+10
1.79423e+08
3.02915e+09
3.1054e+08
4.56508e+09
1.82018e+09
5.10112e+10
4.37143e+10
5.775e+10
1.04247e+10
7.10924e+09
6.20294e+10
2.68148e+08
4.37428e+09
9.55077e+10
1.24429e+11
4.57983e+09
2.64284e+08
5.28638e+10
9.76099e+10
1.22424e+08
1.43562e+11
2.95064e+10
2.06532e+10
7.32703e+10
5.06934e+10
3.63955e+09
1.92991e+10
1.18234e+08
1.36678e+10
1.51073e+10
2.95441e+08
1.86171e+08
1.8836e+08
8.61824e+09
1.90036e+10
2.35094e+10
3.25268e+10
3.96769e+08
3.88203e+08
7.07909e+09
1.27425e+09
2.55613e+08
4.07821e+10
9.73277e+10
3.71874e+10
4.7784e+09
6.59672e+10
3.19767e+08
1.26077e+08
1.1157e+10
9.95118e+09
3.7853e+09
1.937e+08
1.77664e+08
1.98646e+10
3.38579e+10
3.20657e+10
7.08517e+09
1.16123e+10
7.22172e+10
1.46218e+11
9.58288e+09
3.37823e+09
1.97642e+08
1.23719e+10
1.30728e+10
3.77725e+09
1.14518e+11
1.34029e+10
1.296e+11
1.75613e+10
8.86092e+07
1.58126e+08
2.74389e+08
7.92589e+09
3.16714e+09
3.57418e+09
1.00187e+10
1.9573e+08
7.54736e+08
4.23385e+10
6.95113e+09
8.76715e+07
9.76231e+10
1.17372e+10
3.12931e+10
1.50501e+09
7.54871e+09
1.97513e+10
3.07753e+08