/*--------------------------------*- C++ -*----------------------------------*\
  =========                 |
  \\      /  F ield         | OpenFOAM: The Open Source CFD Toolbox
   \\    /   O peration     | Website:  https://openfoam.org
    \\  /    A nd           | Version:  8
     \\/     M anipulation  |
\*---------------------------------------------------------------------------*/
FoamFile
{
    version     2.0;
    format      ascii;
    class       volScalarField;
    location    "6e-05";
    object      k;
}
// * * * * * * * * * * * * * * * * * * * * * * * * * * * * * * * * * * * * * //

dimensions      [0 2 -2 0 0 0 0];

internalField   nonuniform List<scalar> 
23640
(
3413.87
20046.4
109.635
31312.9
17295.1
20004
12838.1
7957.63
46003.5
29126.7
23015.6
25938
4373.75
16372.2
37972.3
15598.8
1709.76
45597.4
39016.4
46129.6
22865.8
117.99
23920.9
12511.7
13739.7
16674.8
71468.9
50109.3
1074.46
6993.5
3308.57
59395.5
22138.4
37164.2
39286.9
40648.3
1760.48
2117.88
909.504
10563.4
30619.6
43105
15417.8
1145.66
42942.4
71829.6
2466.2
22367.4
28944.7
7371.38
59292.4
53927.9
43728.3
1794.03
31956.5
8340.76
27071.2
22363
7150.33
39260.1
3250.73
70904
19187.6
53144.9
8508.89
53032.2
16361.9
15438.6
22874.7
15631.6
9818.57
36868
27543.6
1774.08
17760.2
58618.7
1107.2
4236.97
38269.1
19588.8
72690.8
55582.1
9352.08
9589.59
8296.77
21611.7
53768.7
4027.57
16783.8
36708.7
9359.61
22226
38639.6
30705.6
58444.7
6382.6
52006
16798.6
17553.7
38761
40578.7
1754.27
9679.99
1637.5
34367.7
1935.6
15845.3
1442.84
28947.1
20637.8
2896.96
27961.8
28931.4
30212.5
35819.9
1067.95
37783.8
2607.35
3160.9
7341.2
4483.12
56695.7
19109.8
57969.3
68701
9742.15
59436.3
53017.1
20170.1
29509.4
53588
48387.7
4359.85
70596.2
2340.18
3461.14
21258.9
14726.4
23558.9
48730.4
18985.8
27733
27476.6
23183.6
22077.1
18325.2
20335.5
12640.8
9787.04
22145.4
7083.26
15054.5
10066.1
24122.4
57203
1636.64
12938.7
35611.5
13524.2
71698.8
34048.4
39324.1
42212.9
10874
807.58
655.483
11910.4
75822.4
16915.5
47338.2
21481.6
35528
17274.2
28223.3
17197.4
16234.2
29257.1
48875.6
19569.9
7267.27
42724.3
3476.36
14491.7
50000.4
1176.39
67165
68894.3
38715.1
36376
52370.8
38859.4
20959.2
55590.5
9901.07
1234.36
8999.39
34508.8
34709.2
2393.53
68235.7
30777
740.13
2381.25
42443.8
32947.9
7861.39
1812.56
23192.1
46992.8
12913.6
16621.4
15464.2
4442.33
7945.58
14999.7
22298.1
25303.7
46014.3
13201.3
958.137
4677.6
22219.7
30495.8
26880.7
14049
27726.1
20632.9
57419.8
1065.51
9332.01
3646.11
1310.04
43628.5
16111
34684.5
56091.4
10121.2
22642.7
9827.63
66194.5
42703.6
12322.5
30969.2
38797.2
29566.4
1399.16
4980.26
14749.9
21975.6
10214.2
41059.2
18149.5
2440.53
16966.3
7124.32
10646.7
331.109
1379.89
20176.3
18336.9
38114.5
2878.79
44039.4
27608.4
1069.62
15201.2
68273.3
15873.6
7156.27
56618.3
31828.1
712.069
3772.89
37271.7
50057.8
36998.8
1173.83
56731.4
55434
27945
9341.74
1005.5
68969.8
22724.2
20719.5
70718
12539.9
36887.6
18900.4
22933.6
8707.11
1656.95
22260.3
12615.5
23753
13424.3
27666.2
1839.3
18911.6
2301.81
76779.3
52043.9
57359.2
21615.7
21821.1
723.351
52002.1
72388.4
35510.5
26017
1099.56
51506.4
17332.6
35265.7
30750.6
68129.8
38101.1
180.857
57638
17830.6
3515.58
36445.3
38979.7
49546.3
2306.61
58009.1
18281.9
13437.3
4075.09
59518.6
73041.3
8141.75
50610.4
63697.5
15446.5
21026
2545.94
32025.8
12629.9
18602.6
16257.1
28259.5
56570.6
56921.4
17781.3
47247.2
71884.2
24063.7
27370.2
43771.9
18270
55319.7
1372.85
2561.09
38314
685.015
6099.02
2593.17
18554.4
22219.5
68220.7
24105.1
48773.5
2053.33
22561.4
636.83
613.326
31436.2
38900.2
7039.5
70692.6
14851.9
1086.95
30273.5
68476.5
1344.12
45109.4
711.622
13649.1
67954.7
29283.4
15398.8
21006.7
30451.6
22895
1959.29
38414.4
607.737
9828.77
792.733
60046.3
24221.7
2942.32
43492
45881.5
12380
56266.4
2304.76
2399.63
72312.4
2723.99
7443.92
31644.3
738.084
4224.38
19415.3
28243.6
1121.1
31624.6
14178.9
35058.1
21881.9
17320.9
57226.5
20695.6
30024.1
71143.7
5015.56
44293.4
40671.4
20311.3
59055.1
18803.7
35938.4
34580.1
841.1
57484.4
22993.7
23687.3
9218.04
1353.06
46197.6
12547.9
23683.5
62786.1
17961.4
72149.3
31896
61663.7
40642.5
63647.9
17469
24690.3
41545.9
64740.6
14923.9
72289
30954.1
28186.2
31472.7
59741.5
16503.6
17613.3
24056
49513
2208.07
16197.6
50677.6
17861.2
28480.9
43420.9
20530.5
30541.3
59705.2
31908.9
7423.86
39629
4377.82
44140
39358.3
52291.8
7633.69
38984.9
786.044
3118.28
71912.7
15588.2
59711
50657.9
56342.5
13985.3
1273.18
43727.7
41322.9
36878
43225
18249
938.043
3377.72
2467.97
67568.9
54290.6
4014.99
10205.4
13918.3
19120.9
38917.2
75726.7
43113.5
2642.44
6135.31
20869.6
849.203
19723.5
7152.98
7103.59
45387
999.779
1614.8
4319.96
71680.7
3345.71
39398.3
30309.4
24001.2
32564.3
29898.4
1182.54
37061.7
21458.9
35498.3
61252.8
59741.5
37183.2
20076.3
29384.9
24150.5
48383.4
29267.7
7085.04
21098.3
14504.8
57094
15313.3
20945.5
5115.74
42126.8
43280.2
1410.52
64485.6
8929.46
7265.95
14192.5
18550.2
1902.71
15117
36846.5
20311.5
11280.8
11367.9
62179.4
16395.6
13434.3
998.23
62199.1
5404.12
17946
10405.8
21851
18046.5
6192.39
15123.1
20573.6
68634.5
45737.1
24314.4
17438.1
30766.8
55852
27433.5
59737.5
16564.5
13756
1830.52
2466.75
38974.2
24161.3
23415.4
33856.1
2209.78
46895.5
20414.5
2521.37
49423.1
34834.5
15282.9
9543.48
33778.1
16403.4
30787.8
21593
13512.4
29899.1
35275.4
7075.89
56818.6
44621.4
70678.2
7679.45
43459.7
21148.2
27814.1
20214.6
53968.5
6811.79
10330.2
40361.5
3053.14
30819.9
24044.8
6900.61
7281.42
24566.1
8921.07
21845.4
42063.7
31889.8
20708.7
1848.45
57843.2
33641.9
27965
43819.7
21697.3
17156.4
57796.6
20277.2
29322.5
6685.11
25351.4
650.105
14227.2
1993.64
7190.99
754.368
35207.2
6298.88
21659.1
2284.98
31641.2
36301.6
16515.7
14549.4
4151.15
4681.21
20522.1
29778.1
70037.2
1949.33
24418.3
37366.2
56822.6
20216
9078.55
45132.6
35236.4
42759.9
18063
4595.27
6925.2
43012.8
74396.4
1095.55
59286
23.401
23.7622
4234.54
55999.5
19112.1
18068.2
57118.7
18730.1
20902.1
39985.9
54089.1
1706.47
5139.95
17490.2
2573.53
20861.5
42606.1
17903
18231
938.425
34145.2
1759.06
30564.4
33645.4
72627.6
56907
1039.05
2665.92
45136.2
13967
61849.6
1495.05
37907.5
61055
12647.4
28251.4
59414.1
55054.5
39233.5
10802.2
2310.82
49086.1
8985.32
37322.2
12191.6
54529.4
30059.8
9518.19
46212.9
1095.16
116.728
36942
33956.4
17511.6
23519.2
21690.1
41425.2
71774.2
31981.2
914.22
55940.9
43.0938
1235.55
1355.63
32388.6
28141.6
22964.2
2477.49
19299
12722.3
1403.11
26961
3637.72
30324.7
19661
23376.1
10115.3
34208
19815.6
60479.7
1298.9
70204.2
2674.59
15301.6
972.868
6155.79
64263.2
605.526
13418
5276.63
13317
59709.6
68520.9
1639.98
54980.9
9430.94
2371.3
7187.72
54757.7
11735.9
27591.4
12426.6
21774.3
38858.9
36871.6
55310
37074.3
36096.8
75206.4
29597.1
14754.7
4507.64
16051.4
15494.5
61929.1
4461.21
36191.8
58332.1
248.903
4648.2
17656.6
54075.8
69432.8
952.102
51835.3
29070.1
863.673
40664.5
24968.4
6834.97
1131.2
13177.4
2467.7
17669
2139.69
10135.9
28538.2
29965.4
14080.4
2801.45
32265.3
34405.2
17778.9
35365.3
17800.1
5871.55
40229.5
13789.2
17279.7
27565.7
13854.1
44090.8
12435.3
5331.15
38308.2
30824.2
17026.3
1071.2
4988.01
50706.6
5831.13
11921.6
54028.2
2790.99
32090.4
54071.1
5544.54
68343.1
2345.6
53275.1
29192.8
15361.2
18920
64016.8
547.346
4866.4
52312.8
29314.3
25332.2
36664.3
1355.62
1927.06
24321.3
5647.67
9226.49
17601.7
6970.94
4159.92
40451.1
4740.46
42133.2
59740.6
14447.3
51700.3
30588.5
50025.7
54352.1
2709.62
7283.49
11295.8
70399.3
4117.96
25592.5
2295.59
48638.8
27764.3
62405.7
11813.2
17563.7
22944
59691.6
1236.68
16114.5
81881.5
1973.73
771.709
35396.4
5917.79
52361.7
3506.59
61110.9
34325.9
19261
53307.5
29899.2
6019.6
322.773
71556.5
31251.5
39209.9
4009.58
55563
5343.41
9000.38
914.514
14832.8
31237.3
2128.02
15046.2
3443.4
54621.3
216.947
56018.1
8839.07
24669
1593.72
70563.9
787.264
30700.7
47605
26021.9
6255.75
68136.9
18008.1
31219.8
19712.3
18616.3
27297.5
7250.17
9520.29
711.281
30868.4
1218.15
16295.2
40964.4
57771.3
53440
30332.7
107.979
32127.1
40080.5
58521
36249.8
5737.12
18000.4
21109.6
29296.6
608.165
9955.06
20291.1
19861.2
38515
14150.3
45235.6
1131.17
2867.15
28343.5
22437.5
1793.82
34741.2
12931.6
6074.82
13961
600.952
17202.8
1263.74
44830.7
8781.78
31819.5
4311.72
30600
8999.99
18138.7
37054.6
7870.41
16526
27436.6
2609.4
21387.9
16967.1
27042.3
4419.07
31046.1
33198
36495.9
15432.1
30117.8
13744.8
29408
18970.4
17012.2
28075.9
693.4
4850.28
12728.2
39761.1
4108.02
28050.7
14401.7
31572.5
11472.2
13551.5
37989.6
7171.99
23828.6
37324.2
31253.1
4307.31
61400.2
53377.8
36158.3
71371.9
60332.8
1342.31
5814.26
9147.48
982.565
7342.09
2324.23
12391.4
10545.8
32211.3
7342.58
13143
39799.3
1448.09
34817.8
55032.6
633.127
11772.5
55224.5
1458.11
16006.1
21489.1
14835.2
17239
43684.8
55303.7
8865.79
41382.2
2402.13
8659.49
4716.38
36977.3
10339.7
2808.86
4671.14
14878.2
3837.91
12564.2
2325.24
69707.6
66430.1
71098.8
49525
43820.4
16172
23005
45048.5
10923.4
27985
7184.2
54611.3
10827.5
3432.98
35501.9
18981.3
14257.7
2076.52
22057.5
17787.7
4264.94
905.879
71615.6
71906.3
19257.2
12413.4
742.81
39948.7
72817.3
53819
12410.7
72172.6
3204.6
13210.4
12386.6
4277.16
43357.2
34071.7
66910
3009.67
36891.4
43569.4
36934.7
7868.29
29828.5
49159.8
13624.7
6047.43
49816.6
46099.8
5921.01
4772.13
2219.79
25176.2
14712.9
23435.7
697.665
483.873
26858.7
1311.09
22784.6
20468.2
1953.41
12322.4
71000.4
23538.2
14734.2
3438.55
3530.04
10648.7
19297.8
69673.9
64379.8
2496.06
54272.8
12143.5
4132.79
3462.07
1156.75
1758.28
57837.3
7266.68
38219.1
7209.76
44460.2
28762
39502.4
39202.7
17160.3
59648.4
1357.23
965.12
14279.7
1821.7
1245.43
55015.9
16876.5
1085.25
20950.6
12722.7
66122.2
26419
21349.1
1286.25
68052
30656.7
2359.11
8073.44
7131.99
38381.4
1247.49
73678.8
5315.14
52990.1
22356.3
34150.3
17323.1
45384.3
2432.07
51683.5
51119.1
35345.6
16999.9
42795.5
64156.2
31340.1
36457.9
46431.8
20335.2
39259.5
30055.5
6993.1
28275.4
57624.3
13308.2
2934.73
36809.9
31677.3
994.831
1599.64
28618.5
56517
824.824
11361.2
5773.34
31322.8
6532.84
10788.1
14155.6
12630.7
23100.1
1382.36
59735.9
9008.1
21402.2
17671.5
35586.6
21252.7
27779.9
1071.67
55119.9
35664.9
10804.3
21259.1
21352.6
634.918
28614.4
22579.9
26528.9
3744.33
18130.9
3320.54
62100.4
4748.02
742.294
17795.6
29583.4
6906.83
55879.1
22914.5
42342.2
21197.7
70904.5
40949.3
50498.9
26891.7
17262.4
42740.3
7133.74
66.3303
14564.6
27233.7
2476.83
955.747
19047.5
28752.7
41294.3
16850.8
15823.8
11255.4
1125.12
18096.4
41355
12284.3
3859.45
55892.4
42881.3
47697.7
1443.02
13982.3
60644.7
2967.95
3978.13
2908.7
43352.8
21869.4
19832.7
30662.1
64321.2
53823.7
7314.45
18881.5
130.829
1097.62
8538.25
5502.11
1039.68
7350.75
120.406
16888.9
16895.4
65993.9
21042
36168.1
6302.66
9976.08
56556.2
29556.3
25733.7
34248.6
4954.91
2049.46
3586.07
4586.83
54052.8
29639.5
38723.3
40280
6800.02
27904.5
72392.2
38440
12061.4
1938.64
19316.1
22714.5
2808.8
2862.91
3267
2896.51
6314.97
59736
42273.6
18952.1
38577.9
37632.9
23112.5
17344
8739.04
21731.5
53323.2
30673.4
12562.6
26000.6
2204.04
41498.8
1246.78
2211.86
52344.6
920.186
34078
1186.45
12404.8
42567.3
56287.6
13430.4
26531.7
15887.2
29336.9
16961.5
8858.05
68251.3
26133.7
18528.9
16999.1
1092.82
653.224
5606.77
740.95
2337.87
33802.5
50704
25590.6
33246.5
18733.1
8202.57
37866.7
2710.24
43229.6
39949.2
59629.5
9736.7
18406.7
70644
48917.3
30686.7
23717.3
4080.38
14054.4
34482.8
1134.15
59516
8756.48
26110.4
2752.27
1499.62
1129.39
16979.4
28360.8
71768.6
20382.6
38338.4
12163.8
159.877
1331.12
12288.8
13639.4
2841.25
72133.3
30613.5
76987
42108.4
71660.2
21443.1
67468.1
19118.7
1726.65
20848.1
39043.2
57779.8
17605.9
55932.9
71045.6
35568.5
72422.6
73344
1123.86
5570.94
15438.9
18033.6
17222.6
718.802
21239.1
58597.6
34266.9
19086.6
944.202
41638.6
1062.35
8052.32
25475.3
1881.87
20832.9
44112.2
13903.1
21387.9
44619.7
67349.7
18962.4
14176.4
6682.61
39845.9
44004.3
15979.2
56800.4
4309.89
21121.7
2824.88
22149.1
3004.27
154.452
36154.4
2044.92
30391.6
765.668
12148.4
5313.55
33640.4
8948.59
4279.06
1080.66
729.572
6279.25
28819.5
8337.72
4181.09
33527.5
4242.18
39889.4
6123.08
54201.5
61693.5
7941.85
42013
32095.4
17765.8
195.429
59685.5
3965.05
33723.2
59110.8
14528.8
17403.6
28896.7
56685.2
18906.2
26825.2
25655.3
51672.9
32403.7
23534.2
22284.3
57818.1
20793.3
1022.91
37903
33624.2
21363.7
19995.9
36546.2
14560.5
22131
19034.2
39560.5
18297.6
22000.8
21642
2026.22
2915.36
13801.9
18381.8
56358.8
19570.3
6104.31
17308.5
13063.5
58794.2
22673
22862.6
45046.3
17580.2
41034.5
1315.55
56392.5
16119.4
11458.8
38784.7
48016.1
12346.7
6445.28
53276.4
1762.97
60136.4
37562.2
12229.5
29320.7
23688.1
16061.6
59742.1
2477.68
11778
68454.2
39559.8
75745.7
79066
1159.49
778.262
52214.5
11933.6
21587
64848.6
28134.8
18707.5
9228.85
26875.4
22026.3
646.026
48644.1
21696.2
12212
3289.87
24080.5
8304.95
28713.9
4959.17
17812.4
49587
20870
3026.94
53460.7
33439.9
16691.1
59329
25605.7
13567.1
20476.8
26905.8
20560.8
8873.69
53447
11148.6
14722.9
19544.1
13289.9
41552.6
50679.7
27072.2
2320.15
249.175
21887.7
31114.8
23039.5
59737.2
17224.4
15339.7
38450.9
28287.5
8190.26
28912.4
40728.3
9101.48
70882.6
7615.62
15268
54831.1
26541.9
51467.7
41963.6
38887
9924.09
57773.8
30648.6
5745.97
30134.1
63814.4
34365
21359.2
64959
47527.8
15609.3
39991.6
15794.3
13784.3
72684.4
916.785
39114.4
55925.9
57671.5
10657
10393.8
2949.39
70716.1
4104.21
69615.6
7505.67
9352.06
20269.6
19140.9
3339.21
42359.5
21989.9
1132.31
51324.9
29503.9
27898.1
71613.1
1283.76
12253.1
29294.2
22426.4
32355.8
68195.6
19565.7
65468.4
1021.41
45725.9
5217.46
56925.7
57112.4
58926.9
14940.9
54668.8
15352.5
25224.1
7086.08
24971
2156.44
5531.13
19408.9
24867.4
22227.4
1009.71
28173.5
27857.6
11864.6
14671
32995.1
20362.7
1291.41
4984.31
13465.6
38805.6
52590.4
56180.9
1112
958.239
2596.6
70089.9
52032.7
3455.24
15149.2
4748.21
56252.8
2256.72
3301.36
6040.22
1307.71
55632.2
50585.4
4918.16
36134.2
14712.2
29797.8
11499.5
26186.8
70860.2
37293.8
57571.7
12365.3
15098.6
989.603
19464.5
6170.53
1120.82
59561.1
8827.11
4011.59
38098.1
712.116
21261.4
4826.65
42225.1
33447.9
7784.59
4717.06
12615.6
28918.5
17058.6
24767
32512.2
35776.1
46513.8
59737.8
9424.29
676.809
25439.3
25016.7
11168.4
8742.5
22329.4
21170
16947.3
19518.1
1803.46
721.62
12516.6
16630.4
5128.3
67740.2
31226.8
29817.3
27108.6
1282.38
1320.52
9995.65
45676.6
17381.9
31786.9
20833.6
22717.9
15714.1
15791
46185.3
3423.93
57501.1
8638.11
14568.1
72839
54118.1
49181.8
53180.3
28254.4
13529.6
59727.6
19603.7
61951
34392.3
2972.59
36693.1
32135.4
27906.3
758.549
30539.3
56951.3
10766.5
54309.3
9696.37
62558.7
31295.1
38214.4
698.405
32588.5
67293.7
19713.5
8518.06
29631.6
14626
3927.77
316.222
13736.3
72548.4
18032.9
53336.7
57260.7
34920.9
16527.5
17535.1
71353
20223.2
39490.1
18273
31716.6
16272
28574.8
35779
26339.5
10103.9
5643.68
36464.7
29549.9
64780.1
50875.2
3631.62
15127.3
38299.9
2551.73
1037.9
13587.3
53208.3
5557.12
1119.56
47143.4
4297.34
24794.2
37873.6
62380.3
71676.1
18457.5
1842.75
725.384
50536
31997.5
5863.93
18040.8
42623.3
11219.1
19675.4
18153.3
645.193
20359
15362.2
2088.76
20427.9
12689.6
27848.6
5429.14
617.658
589.389
630.631
638.333
637.024
572.154
651.348
641.021
646.403
45387.1
69581.3
4206.23
933.142
53963.5
2147.82
59736.7
4033.98
1162.45
34927.9
954.804
32326.7
2511.97
40660.9
2614.41
47287.8
32285.8
1298.25
8929.19
14898.6
40131.2
28520.3
41328
67023.3
29476.5
33052.2
456.586
23462.6
13505.7
18719.7
45678.7
54018.5
20261.5
5280.57
6465.3
4641.69
1244.43
1233.86
4931.96
39057.4
8019.15
1937.85
17017.6
12472.5
55372.9
24274.5
35143.4
13001.8
6560.1
53691.4
67230.9
30394.6
630.786
66799.5
1505.4
29929.6
20464.1
6574.43
21848.1
6425.9
3278.64
35494.9
13628.2
37516.4
30894.1
26654.9
10142.1
1175.96
14736.7
3662.42
45818
44688.3
19895.6
58410.4
5942.33
10081.7
59508.9
56498.7
6805.55
62420.4
36416.9
21042.6
42452.8
29073.9
23916.5
17976.5
1136.15
38002.4
16086.5
31177.4
42364
6411.17
19285.1
68556.8
762.608
1579.73
29397.8
53937.5
68761.3
12504.3
38831.5
59723
11509.6
71498
16203.4
12930.2
37003.1
1414.75
36338.3
30890.6
34158.6
53294.4
24961.3
11048.4
8890.3
12756.7
37.8979
28522.3
44225.9
3597.62
2631.5
2577.48
16218.5
26209.2
55136
75748.8
12590.3
34518.4
3185.67
29822.7
17957.5
42716.2
25839.7
13235.9
36310.7
71774.7
55505.7
35491.9
31677.4
2932.22
23964.2
13203.2
2010.65
12550.4
72413
5864.27
46770.1
59721.6
5025.84
14375.6
16769.6
44436.5
9838.35
2482.31
24170.1
8898.9
58611.9
20557.7
35093.1
33474.1
20364.2
20668.2
38155.9
19697.6
37731.7
21124.9
2850.39
35649.2
82361
8011.25
11699.5
23019
43502.9
43492.9
36296.7
11800
61383.1
6443.63
10130.2
24505.7
28364.2
17077.2
18390.8
70944.5
70278
19878.8
39684.6
62129.7
1288.17
39619.2
38.0085
25183.5
1966.29
30078.7
45412.9
57090.6
52734.7
69691.5
13932
49569.4
11345.5
56802.3
41266.4
40962.8
23760.6
39603.8
8980.45
25752.2
12699.1
69895.5
1310.77
2336
4341.37
11264.7
48634.2
76089.9
2487.37
3214.34
33794.9
25998.7
1359.87
8646.16
13618.9
14691.4
44562.4
8209.4
51267.6
26704.2
64294.5
12672.3
38637.3
57872.2
35071.4
34486.5
40630.6
23817.2
59336.2
10993.3
71320.5
18287.9
46260
39895
58753.7
36658.6
2114.35
2773.19
4772.73
10442.1
11268.5
1304.72
1327.17
32547.1
27094.6
11307.8
20921.5
28997.7
5281.04
71288.3
36357
55969.8
23081.7
22762.5
50497.5
3525.34
10966.4
56689.7
45676.3
12786
5840.35
26539.6
2027.81
2056.57
12180.2
34717
3759.58
11970.4
59708.5
510.132
18243.8
5266.54
23475.8
19323.2
70804.4
72262.8
33594.3
3373.84
36982.7
32603.5
18258.8
28153.1
3320.69
60176.9
31637.5
68090.5
6872.75
33885.7
3233.07
1285.69
19748.8
29697.1
41322.3
11902.4
35821.5
36071.9
37077.3
18385.7
36987.5
1190.32
33182.6
50447.9
21790.6
55113.1
33733.6
20826.8
3545.55
23317.4
35279.4
10753.8
3297.76
1113.13
17543
6415.84
36285.7
48767.5
3572.68
77070.8
1994.35
3193.67
16786.3
42219.8
3546.72
30262.3
24132.4
1574.13
1394.94
43463
5514.38
2493.97
13949.9
14468.5
4855.13
28057.5
51156.7
42988.7
21631.1
27686.5
17785
32437.8
68301.5
23232.5
33746.8
10836.1
49005.9
20846.2
34256
684.713
28119.1
935.789
1976.58
12198.8
71566.6
20439.5
21011.9
51100.8
12215.5
16446
621.299
7194.29
19539.8
19927.6
463.516
13303.7
5514
1392.39
41406.7
985.346
17550.3
20416.8
29667.2
1107.02
14656.7
11155.1
56272
9466.36
38221.9
57553.8
38440.8
72096.8
2234.99
63706.6
32603.7
545.286
6373.86
6618.72
1664.18
10110.9
1663.93
39702.4
20929.3
25504.6
17452.7
10981.5
17746.7
26675.7
36822.4
53903
26300.4
14991.2
1119.57
13959.6
9284.2
71909.3
11061.3
22407.6
35335.4
21026.3
1190.13
71370.2
1195.11
1052.83
55883.3
4603.32
6486.09
33204.8
24280.8
22243.2
4615.67
2050.27
33865
1188.76
42501.6
11161.3
34076.1
1148.6
66023.9
30722.4
14319.6
21719.4
41472.6
200.012
22453.3
1059.52
15367.5
3264.91
33972.3
20310.4
16230.6
6967.93
17755.3
12949.6
29495.1
57827.7
20369.9
3125.16
19197.2
42527
31034.8
21470.5
14905.9
36841
16263.8
3369.29
53189.6
13425.9
47203.2
14367.7
24107.5
1102.41
29580.8
1352.91
8969.27
10742.2
59159.9
34713.6
5025.78
42329
15885.9
34658
11608.8
76572.8
2541.06
16445.3
13526.1
37499.5
75960.3
5172.87
59446.5
68179.8
12338.7
63571.2
1986.53
345.058
20512.1
1071.31
40336.6
39502.4
16041.2
49433
49439.8
2255.79
36191.2
30857.1
22652.7
20981.6
29165.9
12934.6
22445.7
33084
11900.6
2573.3
7159.93
13337.1
59176.6
9695.51
14582.4
5106.16
22043.4
33413.7
35858.9
14367.9
26920.4
2242.01
73.5642
67551.9
1287.76
62.3155
2864.6
8685.03
6329.55
46464.6
67666.6
34248
26489.8
10299.4
60748.4
1620.73
15871.6
65661.1
49877
15415
2049.72
71277.9
5743.27
953.253
13010.8
28066.1
22449.3
77528.7
23645.5
18766.1
39743
677.301
38235.8
8827.24
2090.78
1136.74
1558.67
13826.4
28021.2
18633.1
51228.7
3424.31
2778.6
20551.5
7435.15
1547.35
64410.8
59094.3
61712.1
22780.5
38825.8
2782.52
486.276
24686.1
26193.8
15520.2
1071.15
1479.96
33586.4
62527.3
59610.8
14946.6
21801.5
72348.6
38669.6
11276.8
20703.2
1074.35
14080.8
35230
27228
10740.4
38195.5
39480.8
35304.8
825.169
1061.09
2578.97
22330.1
12137.6
19896.5
25007.4
720.066
5320.44
32978.7
20889.5
779.698
27946.8
28651.1
42521.5
4792.96
15658.7
15048.2
2741.43
15444.6
43660.8
1177.35
22594
1659.24
41766.5
247.697
24174.5
78862
760.422
24619.6
29886.9
27532.7
837.118
5258.3
2544.88
26916.9
39337.3
19174.1
19322.2
27597.1
683.365
41491.3
16197.4
32102.3
13866.7
7142.88
35854.3
25556
3413.28
927.851
36663.3
4172.02
8751.16
3742.5
1143.04
22561.8
29648.3
33336.6
18408.8
30297.6
28853.6
2809.88
2741.14
8608.33
24742.2
56338.1
21198.4
36977.3
64954.4
6406.86
14492
41646.2
60032.4
21804.8
11690.1
4085.66
12280.3
25595.9
8585.93
19584.5
26438.7
33097.7
23597.4
38887.7
17462.6
1504.1
21352.7
28489.2
1661
17354.1
15750.7
6219.61
65983.9
19612.6
21060.4
70293.8
29631.7
27127.7
24458.6
3237.44
71122
70085.8
36197.6
2379.96
30104.5
1141.42
36077.2
4331.47
975.499
2442.92
2440.3
49767.4
29939.7
37832.2
31957.8
43020.9
24161.1
41686.1
55751.8
65780.6
65725.4
40748.8
74311.8
1135.62
2347.16
17487.2
28497
9864.15
300.279
62609.1
17236.2
61582.2
18706.2
18709.9
21258.5
3701.07
10585.3
1366.88
34932.3
14332.6
21223.7
40797
47067.7
33473.3
932.881
24624.2
1185.05
71982.5
18043.8
700.001
5311.14
39816.9
24041.8
17849.9
672.221
1059.82
50174.3
56719.4
18411
25352.1
18974
13177.9
2115.3
4808.85
11078.3
35043.1
15470.7
39356.4
36419
21499
34920.5
7840.67
62060
64750.6
19525.6
40847
15127.2
34519.3
1714.1
4823.13
59696
10925.6
26100.7
15215.4
20955.3
2733.08
10528.2
59243.8
17468.9
29029.4
21345.2
59106.3
4096.01
30911.2
14818
16273.7
45597.9
1079.61
62644.4
79639.5
64004.5
3815.4
35781
2067.34
11179.7
9726.53
21399.3
13185.9
19606.3
9156.64
38564.7
1961.67
42111.6
50019.9
36243
16937.7
33924.6
18100.7
16260.1
1096.89
56998.8
1112.7
11537.6
4203.86
20197.4
2410.38
4185.49
24222.8
1317.73
50583
2737.24
40957.3
2302.15
2110.66
13566.5
28300.6
23.7836
17084.7
25044.3
11334.7
21092.3
1082
12896.4
5591.91
15584.6
28233.3
65102.1
26648.7
34649.5
11305.2
64140.4
3146.26
37177.4
60759.6
31668.4
800.089
8533.97
3191.72
33759.6
7534.62
56450.8
1444.06
13082
6610.36
5411.01
32290.4
19295.6
60416.5
35393.8
21515.1
1231.66
28619.1
51825.8
32173.5
896.593
32536.6
24926.8
4715.28
62727.4
38105.5
26438.6
23369.4
37570.5
80554
2468.17
24993.6
2898.62
27.3125
4230.71
35683.6
13091.1
9137.29
23399.7
22905.1
16027.4
41676.5
57511.4
22029.1
59734.2
1026.01
17392.9
52460.7
2692.29
21877.5
3085.18
81862.3
4943.92
8466.02
18819.3
32796.5
7247.65
24906.7
1107.41
42740.5
1009.28
60812.4
27730.5
17170.9
4353.1
30321.8
5428.96
30839.6
35553.4
97.37
20160.6
18794.9
15070.1
15936.6
13884.8
15624.7
13530.9
6076.15
73096.2
1109.07
22361.2
32315.9
40719.3
1919.62
48738.2
18961.2
642.722
1124.81
1121.9
34788.4
80812.7
58867.3
9285.94
54477
2821.75
13894.2
29974.4
5893.82
37201.2
59246.9
6361.84
699.59
29396.2
12533.8
59728.6
1250.81
37723
25174.5
19788
32005.5
22658.5
11302.1
3820.22
71364.9
27117.1
3634.06
30640.8
13312.2
4918.38
12416.7
5049.66
15167.9
24462
19407
5062.42
6773.17
30659
73194
31737.2
43979.8
2628.44
32679.2
8792.27
3524.69
30346.1
3483.51
30222.4
5639.23
62566.3
29079.4
15473.4
13475.5
15006.3
27028.8
804.36
21101.7
67981.1
6901.56
15244.6
40437.9
39346.8
66881.9
5484.72
13312.1
17759.8
29216.9
17914.4
43113
20098.2
16557.6
39343.4
38605.3
24369.4
12677.5
38253.9
17652.6
37825
14005.2
28735.5
6146.26
2062.99
47405.4
51490.1
20038.4
8000.96
14999.9
35753.6
9876.46
24978.8
620.428
21659.6
25253.4
14197.5
66767.8
5396.57
25757.7
48968.9
3333.23
10640.3
33588.5
8261.49
11919.6
36710.3
33948.8
23624.2
57403.7
21184.3
56064.2
31700.1
41130.1
1097.25
36544.2
17362.8
45324.6
19856.8
68245.2
2093.03
3422.35
1149.44
75144.4
1162.15
58644.6
6189.73
10465.6
2083.8
12439.7
30442.5
5592.18
3533.74
1890.94
6320.96
22899
869.84
37464.7
21933.1
45352.8
18919.6
1090.06
57221.4
16790.3
23602.3
28296.5
26567.9
1139.8
2311.13
35877.9
699.253
11102.5
24889.5
38126.3
41271.3
16122
17505.4
965.839
992.748
37771.3
10908.4
952.928
70629.5
5709.3
32209.2
1052.96
27581.2
18446.6
39465.1
10784.1
1924.11
10745.9
20708.5
43096.9
17989.8
35017.9
26524.5
3241.38
15133.2
3065.6
1043.46
22689.2
10460
10462.3
80710.5
50918.1
21206.8
42221.5
72570.3
933.276
15620.5
25770.2
15825.3
35169.2
27080.7
26074.8
38400.1
11187.4
35274.3
13775.2
674.287
1754.13
26036.2
5000.45
2953.6
36576.4
45142.1
34204.5
32661.2
26441.3
18752
41723.4
26628.4
54367
23719.1
56308.2
3093.93
913.552
31824.1
35052.8
5589.64
21739.5
21456.5
42138.6
29365.9
14034.6
33658.5
21685.7
5241.99
16622.2
49294.2
10975.1
35610.4
1176.56
1669.25
21498.3
1795.34
20215.4
39683.3
22707.4
69856.3
21524.4
9629.2
25503.3
37795.2
12153.3
27797.5
45965.9
13732.6
19419.8
1677.67
12197.5
24909.7
23909.8
2019.39
48531.6
29284.4
46550.7
25502.7
4872.72
2300.48
59561.8
58201.3
36827.2
2764.31
6487.84
15848
10900.3
53747.4
24163.8
35025.9
21482.1
978.386
22272.8
21400.1
27760
28115.3
21074.5
35294.2
24845.2
6160.38
18364.9
40292.8
65321.9
38144.4
22355
51900
22600.5
67159.8
50859.4
34461.7
1364.22
22976.7
1453.17
37906.6
65804.3
30207.9
24026.8
3453.13
11636.8
37994
61355.6
11539.1
61375.9
34895.3
33534.4
40055.5
11656.9
43724.1
3350.48
38052.4
74742.4
5637.74
898.22
22315.4
40537.5
3241.01
17960.2
7915.49
46708.6
37073.5
764.489
7898.7
1135.58
27277.7
51682.6
65319.3
10639.5
28821.9
66106.3
36732.3
71643.6
13085
24988.4
14422.8
26620.8
36788.6
7987.51
4929.62
30136.7
62186.2
12504.2
24014.8
3462.87
22473.3
62610.3
1050.23
6350.93
56668.7
23782.7
38683.7
13470.9
14012
9993.57
31134
8952.68
61755.5
3344.78
9558.99
34749.8
10561.9
66700.4
45560
25629.7
6768.52
20917.1
22047.6
28165.7
46399
9321.26
28781.1
29512
59331.2
62284.9
14738.1
5455.5
62159
6960.75
24826.3
1021.87
6735.39
21728.4
67367.7
52774.8
19924.7
67460.5
13920.4
45974.5
1552.1
48496.4
72577
8391.63
25998.1
13569.3
17800.1
57450.3
58980.8
2764.53
31074.3
48012.1
5252.29
27487.2
43319.2
20601.9
38816.7
19907.7
31670.4
652.729
671.125
652.135
620.097
582.511
357.617
634.55
426.165
648.481
18130.2
1739.15
62609.2
26403.2
2427.3
67475.3
13553
44217.3
17559
27522
50825.4
33472
19628.6
25162
1660.63
66498.8
2089.69
12258
28401
45763.3
37992.6
5551.52
14745.9
29021.5
43686.4
49153.2
37362
51446
24922.5
11995.3
36768.9
764.981
3385.46
64085.3
35748.6
1703.1
37576.2
1801.59
2533
2360.5
2155.99
1826.22
28923.4
33856.2
61058.1
32350.3
23895.9
46571.7
29119.1
1000.99
14049.1
34182
63255.4
684.129
1173.02
58629.5
54462.2
1270.91
11576.5
58574
3718.26
62796.6
18375
20539.9
1024.19
25519.7
24517.5
3356.65
9954.71
5670.52
43704.1
20643.1
1074.96
2657.6
34490
51944.5
34831
20921.5
30383.8
11867.4
38469.6
21631.7
31524.6
3929.39
34741.5
56841.4
18256
33353.6
33699.5
36546.7
29761.8
1078.97
36933.7
19835.3
22591.4
32923.6
24704.5
27591.5
39005.9
26122.3
62878.1
25460.2
72891.5
17210.7
61481.8
23434.1
57781.4
20750.2
70867.2
1485.71
9582.13
14940.5
66956.8
5093.09
71556.5
3798.36
687.042
40468
46482.6
35925.9
11414.9
23191.1
1009.14
20088
28742.3
989.805
76008
26662.4
32619.3
21838.3
69424.6
3031.64
15426
16032.9
1888.77
25972
24750.5
70388.7
29376.5
9945.6
62817.9
30243.5
21129
75354.1
32716.3
36735
1024.7
9257.01
25379.6
3488.53
45823.3
15719
45197.4
34700.6
30491.3
53663.8
21128.4
586.507
1980.58
1462.42
20370.6
30036.2
32819
69723.9
23940.3
48898.4
24557.1
22349.3
57010.9
13914.2
22362.3
38905.7
31905
56818.4
69041
25780.9
7985.35
35218.2
15286.7
11184.2
3771.85
29231.8
24297.6
16136
29346.1
38616.8
68752.5
21144.7
53512.1
40075.3
23019
42754.7
22278.1
32377.7
26939.6
13263.8
1067.32
61929
22459.7
44231.6
35118.2
3827.9
12734.8
15990.2
5953.33
34158.4
39459.2
19782.9
54966.5
70476.1
33817.3
29043.5
1055.85
24814.7
64879.4
4322.79
5386.55
14895
10789.2
71266.7
15631.6
2007.18
27594.6
5642.56
27094.7
77189.1
3753.34
71121.6
3119.15
28031.7
18739.8
60090.7
27090.5
16044.4
34969.8
44255.4
40495.5
22100.1
20280.9
19870.7
68596.4
25867.3
1198.78
11254.8
13676.8
66965.8
61536.9
38412.1
72515.1
6674.3
20089.2
17504.3
14692.8
8064.97
971.328
62108.4
36900.9
2473.1
31852.4
11056.6
29172.1
73599.4
30374.6
32677.3
2819.83
2374.6
2041.81
6326.75
906.782
1467.21
34663.6
3195.81
64793.4
71335
49828.1
32124.4
66033.7
27220.5
46081.4
27742.2
25097.6
43980.8
2775.52
21172.3
31001.6
62658.4
3503.59
54912.3
2662.18
38536.3
2747.79
9722.42
38612.5
4270.85
34699.1
33744.4
9507.95
861.759
51570
58124
6676.6
44835.6
44764.6
30060.8
21512.8
18181.8
35499.8
38797.5
64011.4
17989.1
37708.9
7856.15
28239.1
35877.9
21404.8
63861
31691.5
13122.1
32383.6
1141.48
26331.9
15482.6
14499.4
5212.87
3013.68
21129.3
17816.3
24286.2
10105.2
3131.94
63736.5
68432.2
38654.1
64165.5
71443.1
29761
7655.28
43070
19535.5
15143.1
7765.93
52895.2
58116.1
58196.7
12769.6
2202.38
3922.15
27769.2
67711.3
1087.73
62392
742.775
58894.4
33390.8
2776.4
2809.3
17457.2
4711.05
70142.1
44953.2
70174.8
41616.9
42316.7
21083.5
31145.1
35284.5
55129.6
11364.6
827.704
39748.7
2548.09
15272.2
17888
30479.8
20468.7
67253
59683.3
58671.7
26092.5
1147.38
10567.3
68848.5
60015.7
6936.2
19416.8
14112.2
36158.4
37136.2
13296.5
14000.9
24259
68891.8
35203.1
35494.1
10107.7
33353.3
71994.1
3685.22
15903.1
28270.9
35641.1
49260.4
34828.8
58893.9
9606.05
9199.11
59768.4
27597.1
5774.12
71629.6
69366.3
3221.68
24689.5
30154.2
59677
11414.3
22325.1
70627.7
22523.5
51564.8
13525
15851.1
11965.5
27055.3
923.203
35389.9
33957.9
9058.55
2429.9
35538.8
21466.5
8026.19
23353.3
26525.8
8886.15
1769.28
22601.8
4280.32
29078.1
29543
1205.15
43027.4
16511.4
27443.2
9247.88
62468.6
23983.4
3531.82
22912.6
30072.1
20612.2
59399.7
3244.51
4598.43
37225.4
40849.2
28181
23893.6
37994.6
65964
39369.1
12189.7
62110.3
15791.9
33440.4
7323.07
9412.83
8036.34
51534
70357.3
28556.8
27225.8
12145
35420.1
61976.8
71235.8
4973.37
59739.8
3886.37
37378.8
34221.7
5089.25
76258.6
64215.4
52830.7
693.576
577.846
661.523
623.248
205.823
593.794
577.063
648.993
616.471
615.394
261.573
627.019
641.6
635.576
69630.8
31327.8
54011.8
18455.1
43689.2
5531.42
5246.68
1224.76
24360.5
8789.1
59680.6
58029
6144.57
10068.1
29278.7
12439.6
28295.9
66287.6
64234
42524.5
62534.3
1080.09
57000.4
32786.1
18586.1
45226.1
39193.1
38927.1
10609.8
65789.3
3970.08
11540.8
2593.62
18463.5
3401.58
59294.5
27664.6
55731.9
68285.8
24662.9
11095.7
26296
20864.2
13515.6
42043.1
19958.7
50357.2
7921.91