/*--------------------------------*- C++ -*----------------------------------*\
  =========                 |
  \\      /  F ield         | OpenFOAM: The Open Source CFD Toolbox
   \\    /   O peration     | Website:  https://openfoam.org
    \\  /    A nd           | Version:  8
     \\/     M anipulation  |
\*---------------------------------------------------------------------------*/
FoamFile
{
    version     2.0;
    format      ascii;
    class       volScalarField;
    location    "6e-05";
    object      nut;
}
// * * * * * * * * * * * * * * * * * * * * * * * * * * * * * * * * * * * * * //

dimensions      [0 2 -1 0 0 0 0];

internalField   nonuniform List<scalar> 
23640
(
0.00141814
0.00494331
2.48083e-05
0.0271009
0.00508778
0.00140044
0.00445249
0.0023368
0.00685907
0.000572348
0.00903963
0.00572174
0.00301471
0.00512044
0.000888445
0.00111598
0.000749109
0.00474482
0.00955403
0.00615262
0.00616729
6.35446e-06
0.00657649
0.000671836
0.00446676
0.00495519
0.00970525
0.00744204
0.000622375
0.0030999
0.00265752
0.278486
0.00575905
0.00613986
0.00400733
0.000741196
0.000755805
0.0016469
6.45917e-05
0.0010889
0.00573003
0.006497
0.00506893
0.00015083
0.0590576
0.00601828
0.00115636
0.00529683
0.000582043
0.00199779
1.42764
0.00869049
0.00070671
0.00107576
0.028684
3.04208e-05
0.00229579
0.0055775
0.00338882
0.0253157
0.00264783
0.00823581
0.00938775
0.00937015
0.00365513
0.00915508
0.0015163
0.0048234
0.000610223
0.00511324
0.00105049
0.00614376
0.00410836
0.000947255
0.00124838
0.0737084
1.65139e-07
0.0029424
0.00951397
0.00981049
0.00594478
0.00407068
0.00379562
0.00384882
0.00361104
0.000186209
0.00839456
5.04848e-05
0.000797545
0.000968662
0.00385904
0.00549848
0.00178518
0.00585336
0.0104052
0.00372401
0.00952918
0.000137309
0.00368302
0.00131906
0.00235342
0.00107142
0.000259304
0.000905781
0.00372136
0.00143765
0.00350973
0.00104925
0.00648549
0.0043349
0.00246042
0.0044151
0.00631247
0.0056448
0.000414959
0.000780708
0.000836138
0.00228306
0.00130335
0.00330372
3.4468e-05
0.291147
0.000157751
0.325618
0.00829131
0.000598248
1.86097
0.00216101
0.00141346
0.0057284
0.00831284
0.00377478
0.0030393
0.0086733
0.00159664
2.88735e-05
0.00674583
0.00471582
0.00913861
0.00939862
0.00396561
0.00229359
0.00371594
0.00925898
0.00180029
0.00496905
0.00794383
0.00210637
0.00393958
0.00055306
0.00173369
0.000408406
0.00389289
0.0169428
0.00635672
0.00126624
0.00446836
0.0070721
0.00123076
0.00972326
0.000899367
0.000538681
0.000750613
0.00106749
0.000610133
0.000510633
0.00184141
0.00353019
0.00440181
0.00374426
0.0051752
0.000424928
0.00127815
0.00622412
0.00637422
0.00522929
0.00563951
0.000696023
0.00983252
0.00331704
0.0590887
8.41163e-06
0.00467897
0.00764327
0.000619225
0.00793569
0.00874129
0.00223435
0.0162305
0.0077835
0.00513583
0.00760562
0.212262
0.00380647
0.00080894
0.000563272
0.00370255
0.0014966
5.12691e-06
0.00565794
0.00957231
0.000170697
0.00170667
0.00653532
0.00840026
0.00353655
2.76536e-06
0.00618543
0.000893806
0.00242153
0.00496875
0.00479577
0.00187738
0.00354211
0.000363029
0.00521259
0.00567399
0.00630068
0.00200941
0.000287346
0.00202156
0.0083066
0.00950885
0.00578626
0.000920293
0.00621414
0.00542783
0.295033
0.000284494
0.0038606
0.00155566
0.000836641
0.00630625
0.00482836
0.00691635
0.00421525
0.00116314
0.0052569
0.00395623
0.00352977
0.00252554
9.13101e-05
0.00578729
0.00604719
0.0246443
0.000933935
0.00125193
9.2936e-05
0.0132903
0.000513288
0.0299968
0.00489675
0.00114946
0.00603364
0.00339112
0.0011332
5.84238e-05
0.000834712
0.00666632
0.00498237
0.0405872
0.00230201
0.00302528
0.00636967
0.000506439
0.00507402
0.00870345
0.00324253
0.00339601
0.00850185
0.00153352
0.000440071
1.73534e-05
0.0192123
0.00179667
0.00640657
0.000626139
0.28139
0.0105813
0.00628002
0.000524673
0.000378138
0.00744667
0.00960805
0.00295591
0.00752257
0.00245983
0.00132993
0.0051737
0.00961396
0.00427592
0.000937492
0.00526142
0.0018546
0.00910347
0.00385429
0.00565271
0.000970116
0.00519845
0.0007939
0.00352976
0.0093544
0.339364
0.00536341
0.00665188
0.000489515
0.00412537
0.006669
0.0354628
0.00324913
0.000768377
0.00253698
0.00651661
0.00791875
0.00921399
0.0085913
0.00229632
3.92522e-05
0.0104335
0.00184776
0.00105447
0.00636429
0.00389289
0.00739684
0.00149757
0.00231267
0.000626459
0.0037511
0.000825125
0.823092
0.00680789
0.00248249
0.0076365
0.00889667
0.00500254
0.00535441
5.88244e-06
0.00174606
0.00358298
0.00516231
9.28893e-05
0.00251832
0.00649086
0.250079
0.00498631
0.00473446
0.00796166
0.00556443
0.0061522
0.00651829
0.00510698
0.00217565
0.000902388
0.00227461
0.00397835
0.000535742
0.00154466
0.0020667
0.00853048
0.00845011
0.00871395
0.00792078
0.00922866
0.000698045
0.00533944
0.000308864
0.000415632
0.00129278
0.00982711
0.00334675
0.00195129
0.000224239
0.000763237
0.00919579
0.00835744
0.000901002
0.0193109
0.000208578
0.00379253
0.00893894
0.00477746
0.000240645
0.00490308
0.00307745
0.00476239
0.0012229
0.00117689
0.000498678
0.00076736
0.000492427
0.00899992
0.00109665
1.98781e-06
0.000730239
0.0031038
0.00103166
0.247413
0.00158948
0.00112702
0.00718822
0.000298229
0.00028694
0.00228817
0.00046658
0.00291335
0.00529729
0.0158442
0.000655922
0.000871721
0.00130245
0.00150575
0.013106
0.00552511
0.00701358
0.008352
0.00573563
0.00743129
0.00330373
0.00483365
0.00620757
0.00707743
0.00870782
0.00514782
0.00148758
0.000732682
0.000637874
0.269176
0.000214153
0.00776394
0.00145862
0.000600283
0.071741
0.0022944
0.00604121
0.00907199
0.00521505
0.00214668
0.00071285
0.00247433
0.0120557
0.00864491
0.00713721
0.00032203
0.000968178
0.00899895
0.00192711
0.00746824
0.00129997
0.00944831
0.00128495
185.445
0.00154237
0.006721
0.00112119
0.00330896
0.00152365
0.00490303
0.00407183
0.00397333
0.000790967
0.00484956
0.00297686
0.00614511
28.0642
0.000828098
0.0033485
0.000966804
6.25276e-06
0.0020414
0.00513876
0.00826411
0.00382232
0.0439593
0.00029965
0.000458425
0.00746619
0.00502105
5.70389
0.00255477
0.0486944
0.00250235
0.000630767
0.00769137
0.000980526
0.00105638
0.000746224
0.00298789
0.000237836
0.00265382
0.00134528
0.00896167
0.028236
0.00264604
0.000452753
0.00392742
0.00527243
0.00187527
0.00626255
0.000613898
0.00188586
0.00360528
0.0106885
0.000632964
0.0052197
0.0038733
0.00338417
0.00312247
0.000684002
0.000904127
0.00292071
0.00660173
0.00101458
0.000623778
0.000319636
0.00589509
0.00662324
0.00612412
0.000755515
0.0058879
0.00934872
0.00149663
0.0085771
290.828
0.000733686
0.00531904
0.006343
0.00514906
0.00572963
0.00492822
0.00340519
0.00550034
0.0010758
0.00315054
0.000257047
0.000115712
0.00333403
0.000708417
0.00303178
0.00100199
0.00672724
0.000909379
0.00390964
0.00396738
0.00511985
0.00107989
0.00506486
0.000752925
0.00155686
0.0042479
0.00424521
0.00287431
0.00487714
5.11804e-05
0.000285995
0.00248847
0.00305335
0.0052644
6.69157e-05
0.0071117
0.00746236
0.00049064
0.00326935
0.00525804
0.00559368
0.00931413
0.00645909
0.00155376
0.00821809
0.00095749
0.000610424
126.248
0.00507154
0.00391621
0.00148944
0.0021749
0.00975108
0.000240703
0.00021261
0.00256507
0.00104433
0.0783814
0.00614994
0.00202145
0.00575323
0.00796131
0.000741479
0.00106413
0.00255562
0.00490966
0.00837032
0.0127895
0.0044689
0.0055924
0.00577799
0.0033845
0.010365
0.00616483
0.00842898
0.003789
0.00190801
0.00867722
0.00944832
0.00613411
0.00271554
0.00315072
6.63297e-05
0.00241795
0.000756956
0.00641487
0.00494496
0.00332877
0.00174975
0.0056492
0.00360682
0.00134652
0.00264916
0.000249437
0.00485911
0.00105953
0.271597
0.00856511
0.00568776
0.00671493
0.0129989
0.00488235
0.00980412
0.00514649
0.00902168
0.00379952
0.000346448
0.000339994
0.00265508
0.000173417
0.00304006
0.000303646
0.0340107
0.00370571
0.00525558
0.00155662
0.000719758
0.00587907
0.000124417
0.00294633
0.00297524
1.48453e-05
0.00608006
0.00904066
0.00809559
0.0012347
0.00560571
0.00138937
0.220393
0.00130538
0.00380223
0.00622044
0.00839695
0.000631427
0.00298746
0.00300838
0.000512796
0.00762229
0.00571345
0.000813632
0.00216401
2.16746e-07
1.60962e-07
0.000841204
0.163312
0.00131104
0.00196674
0.288292
0.00425241
0.00545506
0.00130832
0.0105705
0.000910226
0.00334275
0.00542039
0.00143676
0.0107916
0.028128
0.0060347
0.00534983
0.000108831
0.00679028
0.00122906
0.0213148
0.005509
0.00545483
0.271556
0.000617432
6.05772e-06
0.00222627
0.00440502
0.00836501
0.00063407
0.00141228
0.00679723
0.00133355
0.00627384
0.0739158
0.0105972
0.00593893
0.000436872
0.0014142
0.00717472
0.000580001
0.00206382
0.00199345
0.00427906
0.00579981
0.000593722
0.000897761
0.000367045
5.18076e-06
0.000646058
0.00166078
0.00516217
0.00577154
0.000294565
0.00348485
0.00755561
0.00164424
0.000324394
0.00686118
8.25891e-06
0.000633493
0.000897171
0.00409708
0.0225721
0.00640254
0.0018727
0.00890751
0.00167296
0.00111636
0.00610365
3.83323e-06
0.00568185
0.00951501
0.00662428
0.00135322
0.00669964
0.00978343
0.00156616
0.000801171
0.00551521
0.00207748
0.000224857
0.000671579
0.00329957
0.00882599
0.000425623
0.0046046
0.00303199
0.00486176
5.94983
0.00931646
0.00112891
0.00836949
0.000849983
0.00213792
0.00344784
0.003323
0.00502887
0.0166712
7.74859e-05
0.00955359
0.00665191
0.00605069
0.00685988
0.0013668
0.00669228
0.00580715
0.00630644
0.000681093
0.00299242
0.00422851
0.00574222
0.00977983
1.17696e-05
0.00250905
0.338659
4.4821e-05
1.25715e-05
0.000149918
0.0255189
0.00796806
0.000713086
0.00770402
0.00637609
0.000317553
0.000875662
0.00234103
0.00386572
0.0003204
0.001456
8.3309e-05
0.0073375
0.000867372
0.000937531
0.00491447
0.00204338
0.00403258
0.00239837
0.0014735
0.00905371
0.00520462
0.00826786
0.00649012
0.0031492
0.000621516
0.0008189
0.00494749
0.014087
0.000122526
0.00520626
0.00439196
8.84967e-06
0.000913538
0.00662138
0.00596101
2.21053e-07
1.32514e-05
0.0075379
2.36794e-05
0.00176305
0.00822531
0.00210467
0.00175901
0.00337427
0.00321618
0.00930705
0.00155232
0.0101148
0.00627674
0.00518936
0.00147422
0.00912827
0.000174085
0.00308595
0.00977215
0.00386373
0.00967174
0.00644336
0.0010813
0.00127109
0.0172278
0.00322998
0.000758923
0.00523835
0.00306228
0.00299254
0.00124354
0.00109001
0.00997404
134.591
0.0026482
0.00402893
0.00510778
0.0028058
0.00436531
0.000985902
0.00361199
0.000827227
0.00870572
0.00283904
0.00965778
0.00165881
0.092091
0.000509896
0.00235766
0.00180842
0.0072627
0.00779899
2.47446
0.000692695
0.000605541
0.00254
0.00108799
0.00049874
0.00257169
0.00257897
0.00959539
0.00270597
0.00155134
0.00356925
0.00934706
0.00812382
0.0205777
0.00145262
4.04991e-05
0.00906198
0.00668719
0.000419245
5.09777e-05
0.00657103
1.47957e-05
0.000918622
0.000195596
0.00107886
0.00934743
2.98642e-06
0.00501032
0.00268289
0.00407244
4.36476e-05
0.00480334
0.000752798
0.00426681
0.00124561
0.00285652
0.000461275
0.000613161
0.00423817
0.00214114
0.00353746
0.00860962
0.00579945
0.00815898
0.00878284
0.000576256
0.00238717
0.00324996
0.000718073
0.000493691
0.000551488
0.000754116
0.00572315
0.000644238
0.0149802
0.00997979
0.0055405
3.14986e-05
0.0041176
0.0469438
0.00475046
0.000664368
0.00267332
0.00401555
0.0115247
0.000226563
0.000385094
7.97671e-05
0.00114492
0.00903095
0.00311767
0.00328889
0.00274596
0.000775693
0.00221495
0.00563497
0.00836321
0.00142178
0.000526886
0.00431173
0.00268741
0.00239396
3.67335e-05
0.00489876
0.000998772
0.00374182
0.0037494
0.00786868
0.00110585
0.00647541
0.000929803
0.00489785
0.0111201
0.00351389
0.00489914
0.00936446
0.000970374
0.00785029
0.00566255
0.000305875
0.00297266
0.00482461
0.000523675
0.00634982
0.00486054
0.000226002
0.00417186
0.00653871
0.00499059
0.00499844
0.00458774
0.000147061
0.00292176
0.00158556
0.00975041
0.00121326
0.0179878
0.00422727
0.0049115
0.00165782
0.00521162
0.0129662
0.00339007
0.00497169
0.0014437
0.0030357
0.00119698
0.0095758
0.00794871
0.000917617
0.00807434
0.00311597
0.000926293
1.62641e-05
2.59228e-05
0.000466869
0.00389142
0.00167062
0.00437639
0.000529758
0.00228943
0.00128231
0.00450424
0.00606019
4.0076e-07
0.00827343
0.133552
0.000310156
0.00106987
0.00762794
0.000432421
0.0048444
0.00806781
0.000147699
0.00485435
0.00906323
0.00668904
0.00206392
0.00627734
0.00155007
0.00399532
0.00320447
0.0010706
0.00465374
0.00147351
0.00135842
0.00381392
5.14832e-06
0.00441213
0.00136594
0.00501412
0.00691073
0.00725986
0.100218
0.00360595
0.00496984
0.00547091
0.0648857
0.000743343
0.00471509
0.00361888
0.00800186
0.00360289
1.98658e-06
0.00664667
0.00220888
0.000844278
0.000690982
0.0135543
0.00512152
0.000765853
0.000281841
0.00770657
0.00729351
0.000581138
0.00226039
0.00044818
0.000888247
0.00162785
0.00155189
0.0035517
0.00915636
0.00262435
0.00435409
0.00119728
0.00294644
0.000753118
0.00323074
0.00823098
3.08955e-06
0.000829984
0.00203174
0.00968278
0.000403383
0.0050915
0.00734308
0.00443177
0.00261227
0.00365922
0.000621404
0.00279708
0.0030754
0.00123499
0.000421616
0.00460615
0.00489632
0.000248799
6.38752e-05
0.0205583
0.000726089
0.0064011
0.00511222
0.000645739
0.00511219
0.00728008
0.00202463
0.00295644
0.00263449
0.00265341
0.00350816
0.00508539
0.00572632
0.00879332
3.14856e-06
0.00796893
0.0019038
0.00280259
0.000990073
0.000729737
0.000917619
0.424232
0.0038902
0.00666416
0.00387913
0.067999
0.00535029
0.000435003
0.000435562
0.00608098
0.216555
0.00103039
0.000269611
0.00375316
2.94338e-06
0.000684872
0.0106044
0.000125415
0.000793432
0.0077432
0.00247362
0.00192398
0.0198007
0.00420471
0.000540498
0.0084098
0.0020211
0.00171181
0.00350422
0.0012811
0.00632515
0.000834266
0.00691998
6.78223e-06
0.00826894
0.00692845
0.00549526
0.000188298
0.00617019
0.00169708
0.00219777
0.00525307
0.00567349
0.000811795
0.00758607
0.00931673
0.00433726
0.000399572
0.00418636
0.000111441
0.000706508
0.000959019
0.00384663
0.00535156
0.0070714
0.00437937
0.00117429
0.00841225
0.00816572
0.000648608
0.000669273
0.00750873
0.00176867
0.000694669
0.000595633
0.00268117
0.00310661
0.00317393
0.00107192
0.00374288
0.00471347
0.00596125
0.00075282
152.039
0.00147647
0.00901512
0.0048707
0.00477098
0.00904659
0.00620368
0.000764724
0.00803942
0.00053173
0.000748392
0.000123724
0.00828278
0.000491986
0.00627614
0.0062801
0.00578245
0.0010392
0.00489288
0.00262965
0.00962981
0.00287794
0.000227349
0.00477993
0.000389307
0.00336184
0.00697315
0.00841894
0.00595546
0.0117237
0.00570883
0.0507584
0.00528319
0.000477006
0.00462829
0.00902837
0.00341237
1.1916e-05
0.00458095
0.00582469
0.0021424
0.000243782
0.0049044
0.00631823
0.00355121
0.00138368
0.00336529
0.000212338
0.000362342
0.00493676
0.00397891
0.00194493
7.05e-06
0.00187531
0.000578973
0.00582455
0.00106919
0.000134636
0.0089139
0.00248147
0.00073032
0.00221411
0.00510324
0.00989953
0.00267368
0.00306175
0.00932848
0.00432548
0.00388256
0.00522837
4.68338e-06
0.000672742
0.00420881
0.000152163
0.000112208
1.59331e-05
3.87238e-05
0.00468232
0.00580516
0.00837413
0.0088986
0.00603612
0.00366164
0.000151816
0.00804792
0.00507462
0.00952904
0.000686692
0.00328856
0.00108813
0.00275213
9.05244e-06
0.00667378
0.00569228
0.00107866
0.000883815
0.00336624
0.000198922
0.00937879
0.00887131
0.0038522
0.00160034
0.00486415
0.00587748
0.00229875
4.81942e-06
0.00262534
0.00230582
0.00269657
271.244
0.00174225
0.00222028
0.00410675
0.00856946
0.00865637
0.00599595
0.0038943
0.000300306
0.00833045
0.009439
0.00421465
0.00580092
0.0012295
0.00488205
0.000546963
0.00143124
0.00611838
0.000684213
0.00240678
0.000672932
0.00194714
0.000524211
0.00716581
0.00464763
0.00563848
0.00267671
0.00552739
0.00456594
0.0039308
0.0044389
0.00557263
0.00847104
0.00655845
0.0008928
0.0003525
0.00345094
0.000289366
0.00156795
0.00297893
0.0045277
0.00957862
0.000756279
0.00839336
4.29472e-05
0.00621735
0.00229846
0.00396779
0.00614037
1.65924
0.00103339
0.000384496
0.00307007
0.0037135
0.000275708
0.00252266
0.00296206
0.00459162
0.00501383
7.5753e-05
0.193054
0.00353924
0.0171139
0.00209721
0.000989395
0.00058686
0.00591421
0.00589793
0.00651056
0.000197521
0.00900712
0.00220975
2.04967e-06
0.000593744
0.00501075
0.0025599
0.00243869
0.00743555
0.00110836
0.00222783
0.00484633
0.00778751
0.0103067
0.00828155
0.00526155
0.00138553
0.00132105
0.000968151
0.00211597
0.00487097
0.00758418
0.00951748
0.00662718
0.00604199
0.00716448
0.000526947
0.000223493
0.00077732
0.000253155
0.00108841
0.000433411
0.00916432
0.01023
0.000820469
0.00604319
0.000692555
0.000546482
0.000378119
0.000408772
0.00571253
0.00152316
0.0056432
0.00399883
0.00467693
0.00816327
0.00733739
0.00555241
0.00876496
0.00142865
0.000351396
0.0015418
0.00523683
0.00152891
0.00728896
0.00293173
0.00540561
0.00219494
0.000208252
0.00168612
2.06903e-06
0.000358653
0.00125383
0.00786703
0.000643182
0.00205805
0.00329012
0.00147513
0.000550922
0.000720585
0.000279804
0.000263077
0.0035995
0.00884373
3.02181e-05
0.0029176
0.0102063
0.00302084
0.00595576
0.00166655
0.00429326
0.0100482
1.77288e-05
0.0543463
0.00784927
0.00488271
4.62996e-05
41.2667
0.00260487
0.0050325
0.00232093
0.00401062
0.00531462
0.000797648
0.00846856
0.00604132
0.00561283
0.000267312
0.00457325
0.0177492
0.00212635
0.00566228
0.00880174
0.000661647
0.000141566
0.00257234
0.00365443
0.0101903
0.0104363
0.000769467
0.00465356
0.00184126
0.00150939
0.001041
0.00517568
0.000672242
0.00668479
0.00123814
0.00218913
0.00453804
0.00519606
0.0105998
0.00542829
0.00282029
0.0059099
0.00280471
0.00255001
0.00542215
0.0149751
0.0707388
0.00688266
0.0248122
0.000632922
0.00730158
0.000884955
0.000582236
0.00603234
0.00369731
0.00425307
0.0031428
0.0103745
2.6153e-06
0.00286373
0.00970142
0.00422892
0.0238348
0.00572274
0.00498107
173.42
0.00191572
0.00404469
0.00712588
0.00583531
0.00627316
0.00260706
0.000601864
0.00030852
0.00191012
0.00504117
0.00538498
0.00192426
0.00588749
0.00872531
0.00100491
0.00554746
0.00579168
0.000382537
0.00207066
0.0098477
0.00436005
0.00161708
0.00191507
0.000512626
0.00129789
0.00319066
0.00544259
0.00207405
0.00505746
0.00150645
0.00648046
0.000290932
0.0044918
1.81909
0.0159006
0.00125371
0.000311635
0.000349599
0.000689585
0.000551637
0.0042576
0.00470726
0.00025803
0.00561091
0.00264831
0.00872235
0.00131205
0.00156866
0.00138858
3.50968e-05
0.00405313
0.00607866
0.00558564
78.4162
0.00507596
0.0019449
0.00130909
0.0174005
0.00381282
0.0058979
0.00869375
0.00147841
0.00749716
0.00347972
0.000559539
0.00775226
0.019607
0.00635836
0.00748641
0.00113167
0.00108043
0.0106511
0.000527693
0.00248095
0.000956873
0.00916367
0.00482898
0.0112015
0.00925585
0.00650666
0.00551224
0.000887805
0.00432488
0.00525774
0.0097285
0.000737915
0.00104184
0.174291
0.01006
7.93877e-05
0.00128083
0.000455039
0.00213793
0.00270332
0.00778136
0.0034727
4.45318e-05
0.0108858
0.00932477
0.00261177
0.00305914
0.0133999
0.000316007
0.0076895
0.00616382
0.00593385
0.00688912
0.000692379
0.00419058
0.00577826
0.00442158
0.00192885
0.0080058
0.0087936
0.00807492
4.30713e-05
0.0031889
0.00333945
0.00661343
0.0582429
0.00576304
0.00305183
0.113747
0.00574676
0.00596715
0.00217907
0.0180256
0.00117283
0.00342621
0.00158905
0.00642503
0.0138498
0.000648047
0.00387939
0.00050318
0.00112056
0.00412499
0.00198601
0.00783837
0.00075034
0.00317058
0.00311948
0.00575659
0.00761009
0.18864
0.000542207
0.000197353
0.00102219
0.00811994
0.00551643
0.000969622
0.000194337
0.002416
0.152994
0.00152278
0.000751322
0.00279033
0.000580799
0.00169112
0.00161259
0.00324576
0.00679421
0.00482399
0.00608249
0.00181465
0.00570175
0.00871964
0.00670263
0.0066764
0.00438416
0.00570219
0.000279037
0.00144273
0.00358064
0.00072173
0.00882932
0.0042913
0.00279041
0.000776195
0.000513099
0.0111598
0.00128271
0.012462
0.00170041
0.00257154
9.18595e-05
0.00249562
0.00779544
0.00588569
0.0064971
0.00843022
0.00675283
0.00546034
86.8376
0.000791275
0.000252341
0.00603465
0.00645093
0.000522811
0.00353309
0.0140512
0.00559654
0.00426227
0.00947146
0.000733358
0.000327169
4.77743e-05
0.00462552
2.38645e-05
0.00504918
0.00959836
0.000259676
0.00938684
0.00108795
0.000601662
0.0011169
0.00911144
0.00485232
0.004334
0.00545138
0.0078001
0.00487365
0.000127363
0.00188099
0.000603187
0.304757
0.00206658
0.00378449
0.00972484
0.00420589
0.00302723
0.00430165
0.000288947
0.00463795
15.4589
0.00485815
0.0095793
0.00640058
0.00151393
0.00102034
0.0279184
0.0218891
0.000641483
0.00519871
0.0106415
0.00129731
0.0083506
0.000907274
0.0104245
0.00118933
0.00257431
0.000497538
0.0081062
0.00852119
0.00941673
0.00328929
0.0187107
0.000136841
0.00271959
6.19859e-05
0.00454896
0.00937947
0.00787491
0.00588432
0.00867733
0.00148925
0.00525507
0.00155428
0.00953396
0.00502822
0.000643357
0.00538887
0.00417986
0.000314797
0.00883303
0.000531253
0.00156204
0.00101395
0.00282434
0.00685464
0.00419095
0.0074313
0.00546436
0.00275878
0.00483837
0.00466768
0.0019059
0.00072487
0.00250078
0.145709
2.83247e-05
0.000781814
0.00550439
0.00301522
0.0032316
0.00667318
0.0104829
0.00674689
0.00474882
0.00128993
0.000516002
0.107344
0.00185578
0.00269426
0.00538536
0.00993328
0.00414845
0.00900597
0.00789648
0.000356011
0.00840923
0.00326752
0.00140605
0.0055539
0.00169004
0.00388639
0.00338583
0.000377922
0.000444281
0.000242862
0.000367916
0.000279662
0.000223614
0.000493627
0.000415823
0.000452949
0.00745568
0.00796766
0.000941398
0.000640676
0.010467
0.00142837
120.213
0.00194604
0.000711273
0.00575281
0.000278715
0.00930716
0.00156595
0.00374062
0.00204695
0.00578616
0.00325492
0.0011059
0.000576182
0.00448188
0.00739642
0.000837111
0.00271309
0.00370748
0.00639962
0.00674683
0.000159253
0.000271908
0.00441433
0.00167144
0.00264428
0.00179149
0.010808
0.00335762
0.00368734
0.00317666
0.000277198
0.00101176
0.00301953
0.00572401
0.00360245
0.0015507
0.00585086
7.89567e-05
0.0407183
0.00552021
0.00194472
0.00233167
0.00327163
0.0388374
0.00833129
0.00507962
0.000176468
0.00411854
0.000995023
0.00785075
0.0111521
0.00319102
0.00533725
0.00315745
0.00263782
0.0359676
0.000142518
0.00135993
0.00562311
0.00258533
0.00460841
0.000725935
0.00099186
0.00179342
0.001165
0.00528863
0.000105215
0.0047662
4.99121e-05
0.00375069
0.00579899
0.00664348
0.00296682
0.0104581
0.00335542
0.0102294
0.0387836
0.00896621
0.00964502
0.00514411
0.000463473
0.00616661
0.00466326
0.000568306
0.000600845
0.00368278
0.00511328
0.00883202
0.000308865
0.000677298
0.00624524
0.0102431
0.00930391
0.00162622
0.008372
12.4207
0.00143232
0.00545591
0.00404857
0.00235995
0.00804266
0.000592519
0.0379838
0.00185155
0.00158656
0.0102698
0.0183436
0.0041166
0.00370838
0.00396098
8.85964e-08
0.00631509
0.00773494
0.000772426
0.00225981
3.38807e-06
0.00229792
0.000194409
0.00156621
0.00384981
0.00440405
0.000988649
0.00255522
0.00399742
0.00776782
0.00362774
0.00018588
0.00470975
0.000731915
0.00728766
0.00771206
0.000787751
0.00902764
0.00247878
0.0055193
0.00451059
0.00166446
0.000106267
0.00338378
4.755e-05
0.00951587
9.57551
0.00328513
0.00359385
0.00493865
0.00463725
0.00394095
0.00187889
0.00560151
0.00363633
0.00639149
0.00199116
0.00222606
0.00497348
0.00622657
0.00467122
0.00216524
0.00976255
0.00107869
0.00227331
0.00113287
0.000342827
0.00297678
2.79648e-05
0.00381954
0.000265205
0.0051426
0.00670872
0.00102036
0.00189631
0.00682974
0.00371762
0.00118947
0.0172254
0.00566698
0.0056864
0.00122591
0.00572351
0.00795687
0.00970297
0.00994023
0.00995702
0.000285449
0.00349849
1.12388e-07
0.00964423
0.00132234
0.00245154
0.00336607
0.0086243
0.00592083
0.00780391
0.00401624
0.00293224
0.00174826
0.00721057
0.009918
0.00725462
0.0024288
0.00839994
0.00047636
0.00595346
0.00423983
0.00835869
0.00101744
0.00104711
0.00227868
0.00414899
0.00264035
0.00204783
0.00181354
0.00177262
0.00140511
0.00537219
0.000517371
6.65132e-05
0.00240433
0.00476607
0.00451108
0.000409321
0.00794785
0.000430949
0.00886067
0.0025694
0.00320429
0.0101155
0.0066136
0.00461236
0.00979988
0.0164395
0.510574
0.00400762
0.00803792
0.00342566
0.00264303
0.00627443
0.00977239
0.00311841
0.001489
0.00207531
0.00218202
3.26045e-05
0.00479487
0.000678478
0.00100526
0.0284532
0.0209861
0.00315272
0.00975062
0.00387605
0.00326948
0.00859918
0.000943232
0.00844409
0.0153183
0.00477579
0.00366226
0.00272516
0.00398786
0.190462
0.00559503
0.00159728
0.000203953
0.00573834
0.00132071
0.00080972
0.00505211
0.00856169
0.00271733
0.00505476
4.30145
0.000185416
0.00329765
0.00333822
0.0049345
0.00115944
0.00772814
0.00366079
0.00653293
0.00263834
0.00516476
0.00163
0.00814177
0.000715624
0.00260639
0.00340558
0.00557568
0.00898149
0.00386246
0.00363259
0.000801607
0.000860473
0.0100313
0.00808676
0.00739442
0.00500282
0.00651438
0.00588128
0.00622168
0.000985203
0.00536799
0.000739969
0.00245244
0.00747467
0.00585864
0.114993
0.00680843
0.00506513
6.64473e-06
0.0145966
0.00336887
0.00406334
0.00259213
0.000558602
0.00603852
0.00237114
0.00652101
0.00764179
0.00221496
0.00685218
0.00164127
0.00258466
0.00171534
0.000660244
0.00263051
0.00660557
0.000360737
0.000853313
0.00086992
0.00673657
0.00270681
0.00140874
0.0034871
0.00425281
0.00301772
0.0229643
0.00813887
0.00061145
0.0106856
0.0189159
0.00606014
0.0011501
0.00427066
0.0145878
0.000788978
0.00148161
0.0178462
0.00633674
0.0209588
0.00028636
0.00559636
0.000303083
0.00079387
0.0050846
0.00674853
0.00017154
0.00498441
0.00759107
0.00120559
0.00414649
0.000475055
0.00387078
0.00519361
0.0054645
0.000172151
0.0046553
0.00283232
0.000878643
0.000781259
0.000771636
0.00507571
0.00858701
0.0003829
0.000769997
0.00104707
0.00035932
0.00867809
0.000923233
0.00674717
0.00666514
0.000721991
0.00753164
0.00138424
0.00914676
0.00152789
0.00015105
0.00268448
0.00378363
0.00132541
0.00388601
0.00111719
0.00738733
0.0118789
0.00594617
0.00493088
0.00407175
0.000321746
0.00171945
0.00607995
0.166729
0.00614175
0.0048394
0.000795626
0.00443975
0.00135048
0.00589668
0.00405163
0.0141954
0.00882817
0.0120476
0.000771136
0.00738902
0.000633829
0.000477218
0.00553801
2.09914e-05
0.00372174
0.00494543
0.00112173
0.0054206
9.08159e-05
0.000851124
0.00169135
0.000769613
0.0164549
0.00412165
0.00303821
0.000672185
0.0094462
0.00609502
0.00462463
0.0130182
0.0227794
7.81813e-05
0.0143242
0.000739845
0.00486861
0.00260475
0.00505545
0.00198226
0.00485718
0.00329938
0.00746884
0.00447476
0.00202608
0.0017354
0.00298528
0.000578753
0.00524045
0.00049903
0.00618098
0.0105811
0.00540835
0.000945467
0.0033407
0.00266479
0.00655515
0.0044198
0.00382338
0.00222009
0.00960319
0.000713864
0.00157236
0.000692874
0.00374082
0.00145969
0.00772544
0.00302421
2.22064e-05
0.000590634
0.00510622
0.00290072
0.000322876
0.00631003
0.00189183
0.00172545
0.00440458
0.0060359
0.00643733
0.003326
1.72375
0.00897578
6.1783e-05
0.00688454
0.00122241
0.000121612
0.00522597
0.000338349
0.000459405
0.00981697
0.00464726
0.00765137
0.0970886
0.00165051
0.00813725
0.0276343
0.00745886
0.00579031
0.00574152
0.00397574
0.000251908
0.00331313
7.33413e-05
0.00190636
0.0039097
0.00236998
0.0029945
0.00448359
0.00555266
0.00330552
0.0135027
0.00805643
0.00149804
0.00398631
0.00612258
0.00100504
1.50716e-07
0.00893923
0.000831826
1.15376e-07
0.00237822
0.00148709
0.00198094
0.0038091
0.00942689
0.00182794
0.00605811
0.0013429
0.00535445
0.000881643
0.00518293
0.00406276
0.00179938
0.0046696
0.00143074
0.00864956
3.04135e-05
0.000668022
0.000106123
0.00240265
0.00219613
0.00738311
0.000992635
0.00870846
0.00736592
0.000349191
0.00962688
0.0004642
0.00133165
0.000624676
0.0011608
0.00199638
0.00371861
0.00132914
0.00726152
0.00265981
0.00178993
0.00536973
0.00390453
0.000843013
0.00915566
0.00322921
0.00921694
0.00977435
0.00205663
0.00217914
0.0001688
0.00491585
0.00620533
0.00572715
0.000533103
0.00110953
0.00511083
0.0103925
0.0099736
0.00283776
0.00368382
0.00652322
0.00092041
0.00119432
0.0114189
0.000525601
0.00144232
0.00854475
0.0176644
9.0658e-05
0.00979645
0.00108246
0.00638784
0.000691592
0.000640838
0.00218157
0.00566207
0.0041864
0.00996822
0.00561784
0.000238413
0.00337554
0.00231192
0.0056499
0.000624075
0.000720038
0.0062945
0.0052001
0.00137375
0.00292335
0.00103185
0.00219784
0.00485884
0.000551963
0.000440855
0.00921159
0.00113882
0.00446869
1.90368e-06
0.00509495
0.00554281
0.000359276
0.0084251
0.00831941
0.0219793
0.000219359
0.00332788
0.00151104
0.000178606
0.00598721
0.00511405
0.00461501
0.0222228
0.000604716
0.00146555
0.00324596
0.00166603
0.00469367
0.00189788
0.00631404
0.00558433
0.00202241
0.000661751
0.00677772
0.00224067
0.0023561
0.00195584
0.000555507
0.0055435
0.00621441
0.000762036
0.00493075
0.0264614
0.000563864
0.00062977
0.00141526
0.00318077
0.00173482
0.0065053
0.00995439
0.00107225
0.00409275
0.00300149
0.00530527
0.00663905
0.00572118
0.0131558
5.97669e-05
0.00293215
0.0014627
0.00569656
0.00047659
0.00523489
0.00607879
0.030823
0.0161632
0.000906083
0.00717683
0.00109111
0.0101209
0.00065515
0.000702617
0.00190596
0.000143303
0.0027533
0.00865217
0.00144554
0.00569402
0.00799705
0.00554874
0.0205497
0.00628424
0.00257194
0.00746227
0.00787786
0.0027632
0.000207012
0.0222258
0.000858464
0.00310055
0.00297233
0.000277257
0.00137359
0.00137965
0.00109403
0.00616853
0.0025769
0.0228704
0.0051569
0.00836705
0.00312954
0.00536218
0.00752149
0.00837312
0.000783472
0.00750374
0.000442486
0.00201896
0.0051022
0.00557295
0.00382542
2.65092e-06
0.0094629
0.00507368
0.00839244
0.00519758
0.000212951
0.00554533
0.00279282
0.00472576
0.000910185
0.00614667
0.00454678
0.0103877
0.00242573
0.00620088
0.00629462
5.95816e-05
0.00595783
0.000652306
0.00704681
0.00559929
0.000442767
0.0033725
0.000620233
0.0044885
0.00477577
0.000385186
0.000863616
0.008048
0.00407968
0.00524181
0.00343636
0.00523032
0.00452614
0.00138139
0.00318898
8.20457e-05
0.000886166
0.00574306
0.00125268
0.00487498
0.0116129
0.00109183
0.00388627
0.00314003
0.00905627
0.00986172
0.00229716
0.00478993
0.00448904
0.000955949
0.00125005
3.08768
0.00409657
0.00602037
0.00177794
0.0052203
0.00237925
0.00392144
0.00573099
0.00649866
0.0160484
0.0103518
1.04784
0.00217526
0.0029209
0.00506098
0.0041729
0.00070182
0.000885995
0.00326841
0.00539813
0.00915652
4.28059e-05
0.00144332
0.000882518
8.43138e-05
0.00360982
0.00366733
0.00522474
0.00974821
0.00141589
0.00614888
0.00118449
0.00281084
0.00366458
0.0066901
0.00467271
0.0028591
0.000327633
0.00523983
0.000464749