/*--------------------------------*- C++ -*----------------------------------*\
  =========                 |
  \\      /  F ield         | OpenFOAM: The Open Source CFD Toolbox
   \\    /   O peration     | Website:  https://openfoam.org
    \\  /    A nd           | Version:  8
     \\/     M anipulation  |
\*---------------------------------------------------------------------------*/
FoamFile
{
    version     2.0;
    format      ascii;
    class       volScalarField;
    location    "6e-05";
    object      p;
}
// * * * * * * * * * * * * * * * * * * * * * * * * * * * * * * * * * * * * * //

dimensions      [1 -1 -2 0 0 0 0];

internalField   nonuniform List<scalar> 
23640
(
143.008
249.95
25.9277
137128
358.193
1993.24
197.367
803.034
1111.48
2222.88
125854
416.399
300.499
291.87
3308.32
1659.98
64.5307
82755.2
107163
1116.54
120851
18.0477
120016
119138
532.121
301.073
9896.03
1584.04
37.2845
482.877
236.622
166945
121054
586.685
1182.85
2886.97
69.1036
130.755
31.5235
129573
434.306
1159.41
357.981
27.5455
137994
13695.9
131.7
289.218
2191.88
816.373
147919
85780
2669.88
72.2787
137108
2146.13
2269.72
397.247
99.7304
139293
226.839
14112.8
134082
89495.4
119.461
88907.8
1480.9
472.796
73375.7
381.078
132883
574.438
107969
60.7015
1872.03
163911
2290.48
287.097
108057
133258
16704.1
3071.27
123.936
122.709
113.439
2338.31
85259.3
126893
110376
3120.15
130.019
448.162
2148.49
108387
84035.6
494.154
91543.9
2532.35
1065.6
2189.35
1914.82
73.3168
119021
81.9414
852.334
123.447
136956
54.7648
430.789
974.755
199.224
108268
691.421
431.26
7562.92
36.2155
3335.37
183.523
126.063
515.866
119977
140061
2638.78
141700
3788.09
125594
154713
3983.87
1933.96
394.215
2600.11
1899.89
317.319
5677.59
91.4287
126719
124546
505.449
125248
95513.1
1038.78
2369.15
106482
125942
105787
666.602
128268
129732
134.394
80430.9
847.501
2331.49
139.136
135302
1919.49
80.8053
198.61
610.365
1437.72
9628.08
3218.35
2319.56
2834.16
1052.92
28.5789
24.759
135407
8870.02
137035
1849.07
287.2
6755.57
1759.62
413.03
135492
135607
394.31
7650.33
133470
372.007
137947
2052.73
503.957
1188.45
37.9844
42660.4
3470.8
1736.91
139622
1323.94
1572.97
126659
139792
134.991
51.7901
128681
882.109
2624.78
2204.06
6460.01
116706
19.0223
144.06
1161.29
111574
109.034
2395.03
120309
4858.6
135490
313.258
446.173
310.425
109.209
2374.27
770.31
356.544
1079.4
1180.95
17.1866
326.358
125771
116986
424.798
118751
649.412
305.094
140910
18.4135
130.104
155.362
46.2439
859.845
414.008
602.381
3021.29
132607
775.102
135.029
15950.5
2113.56
7061.94
438.093
1187.33
136826
64.9618
441.296
2214.34
133430
123945
139411
302.385
130.861
135592
99.9308
129594
18.7821
50.0744
137397
137287
137839
200.58
1812.21
443.318
30.216
358.084
6491.08
1128.66
100.432
80819.8
1662.09
21.4247
120611
139589
4021.25
625.898
36.4411
140234
89921.3
402.784
126244
25.4406
40897.5
127101
1592.09
14214.8
1053.16
2957.3
202.467
126730
660.751
52.6418
712.086
1120.04
124907
784.151
380.644
65.5989
355.774
98.0928
9428.06
91009.8
140346
518.798
123317
24.8481
2203.58
9157.6
137511
107009
47.0947
3379.1
135550
107525
116072
6006.62
1598.83
22.8857
85704.6
1637.21
174.077
605.462
1228.51
1512.7
90.9837
2945.33
141641
793.699
250.878
156061
41321.4
768.794
1206.31
2203.28
906.985
539.23
2148.92
1515.7
818.439
354.742
2227.03
98910.4
1898.7
140618
127063
79203.6
10927.4
414.736
607.964
884.27
137248
2632.8
49.5853
181.416
1174.41
25.4608
518.29
164.357
134121
126160
3306.85
122365
95002.8
88.2042
723.317
14.9382
18.1578
1707.27
108014
433.366
5451.55
99018.6
47.1654
116635
3612.8
50.1335
142248
24.3011
790.621
6621.41
106965
98218.9
766.175
98336.6
931.09
88.7375
2338.35
20.9331
128915
19.1464
75932
2457.6
2333.81
2639.2
2038.54
123648
139934
137.942
124.629
9375.06
110.904
135431
2375.18
23.3454
306.19
301.858
137833
40.3797
2852.63
1447.4
2697.71
133381
136381
1265.18
128362
415.398
13179.8
364.602
1738.34
805.476
137350
76984.9
343.158
2728.94
2463.99
24.3523
141187
2731.55
122770
998.644
43.9071
138460
135090
119381
3666.99
127313
5810.18
3167.14
12245.8
141933
2269.51
134272
3127.55
2303.95
29888.8
1335.37
10437.5
1902.84
119514
1705.65
268636
1477.42
135719
2408.95
69426.9
94.8615
182.394
2179.87
137612
2340.12
1742.59
1525.62
667.595
189245
2956.09
516.76
2770.08
2293.22
1733.07
1595.82
2429.54
561.964
137840
25.7437
144.431
14988.3
326.055
186291
3230.68
150548
1204.7
31.5561
1191.19
2280.98
3150.44
4372.8
120349
19.2853
251.521
98.4079
6231.55
150284
270.798
122608
740.413
302.055
2039.82
37668.2
5630.32
158.427
482.169
131586
24.1707
614.407
573.582
99.3728
1953.35
41.4786
50.8491
309.144
14706.4
165.976
2257.32
2258.7
118189
489.077
647.993
49.3692
1199.82
128642
2679.47
69503.9
270825
3510.83
221.32
701.407
116227
1558.4
107593
97.1286
325.993
119213
3954.33
2892.63
2339.78
377.368
2608.14
1716.79
54.3811
1072.53
1195.3
563.278
772.797
342.901
97.0756
331.538
3376.78
107869
555.609
552.965
14602.1
413.899
2222.97
18.0815
11470.7
380.967
536.163
7065.99
124326
135486
709.428
128192
592.74
6671.27
99025.4
119324
1633.91
114132
9991.58
2459.03
252451
334.359
747.562
102.621
173.228
107763
2672.71
2378.56
1175.5
110.246
138419
1104.73
165.141
1606.71
108322
111797
1025.88
1181.9
286.24
114385
133577
606.663
422.249
1166.75
99.2396
87071.4
1005.79
5676.48
572.381
1776.31
128091
120048
137624
3674.36
411.112
1975.51
2469.57
143.994
522.101
115872
488.722
846.99
441.643
540.823
2271.05
2315.86
2453.98
778.986
89.8823
141979
111235
391.42
587.447
133756
343.506
83316.8
281.323
117470
484.445
3148.42
15.5652
1220.9
74.4895
375.58
15.2627
137549
494.304
292.557
139.726
3165.23
1170.45
2708.15
128388
302.203
1983.88
1096.55
116925
5309.78
89.9564
415.739
2348.69
141054
105729
128.453
1031.38
141019
5734.5
120735
329.133
832.228
1160.76
11099.8
36.4607
3188.23
19.4251
16.828
260.141
140997
108582
1637.43
140490
900.088
304.337
3090.75
91854.9
83.1536
388.04
433.291
102.766
131780
140011
1236.66
544.265
27.4338
561.857
68.2886
137693
538.643
15650.1
140354
35.0819
2076.89
66604.3
215.073
66824.5
51.1952
2808.7
847.936
125255
651.371
170365
90451.3
703.133
120663
146.168
755.498
129207
2187.71
130868
1809.29
109264
126765
4511.68
18.8117
16.4542
2884.61
2436.89
190.477
118707
3256.69
1348.3
14278.6
1607.85
19.6617
1777.13
25.1143
29.1379
61.3559
741.581
136578
879.894
145.905
132054
127480
89.83
607.47
2728.98
418.776
132310
967.786
1147.62
542.714
132505
3876.27
65.6936
48568.7
161.598
88684.6
40.1537
418.722
49059.9
17.9667
725.228
366.807
516.532
185528
6288.42
61.1013
83039
131468
174.495
98.6841
63633
939.172
137524
2580.03
128536
790.594
100471
1745.43
2916.91
981.649
12222
696.115
112748
326.281
136395
1190.83
72370.7
2705.46
1365.21
142631
24.1472
2702.82
2708.17
151611
5112.91
41.8274
1178.98
694.94
24.7967
2885.91
103461
502.322
26.3543
124568
1267.27
133248
90.5188
129833
1190.07
2589.5
700.19
200.328
1624.34
140427
191.635
108460
130450
387.757
2322.34
117668
388.202
137921
2200.13
1622.28
174.665
92016
3383.14
429.335
1203.71
2171.91
102306
1690.27
3124.48
129976
2752.06
173.84
1562.04
64601.1
396.523
6218.32
141.848
91529.2
673.391
891.969
1955.59
31859.4
25.2221
334.733
91839.3
1712.15
123637
804.078
86.2514
76.2003
135424
403.843
131158
401.408
419.098
308.413
3203.08
389.315
104572
261033
1227.06
2291.19
1184.34
2194.76
1871.67
145.572
511.068
136990
14541.1
291.056
123203
132.903
138483
3335.12
3554.72
131106
134031
123876
179223
35.0588
140251
18385
118.658
19.3525
1276.06
314.276
91269.4
245.913
4017.29
1955.82
133259
2631.51
137616
477.708
19.9253
5460.14
428.004
2719.76
130368
1772.87
1961.09
1185.05
17.4486
117828
115753
2579.06
332.632
246.463
65834.7
25.8915
2584.49
1202.95
1246.12
76.3551
5387.73
19.0927
2308.5
1725.4
142013
502.859
18677.6
136650
113360
130772
2162.25
99710
489.19
129530
23.778
3073.41
50.2419
1200.83
2330.48
164359
90930.8
108229
24.519
727.534
137939
3335.27
3259.4
355.815
970.194
132403
2347.15
17.3735
2304.31
2230.49
131010
2494.18
130868
68809.4
50.2463
188.197
397.874
125526
92.6739
3064.87
166.021
329.078
136558
19.3611
243.266
43.6128
1218.36
124.464
111895
243.868
408.059
1217.92
275.134
140935
101.676
282.164
120480
136.957
126374
1007.08
2633.63
315.446
549.028
3022.58
739.975
133131
2371.44
144.023
445.222
277.196
301.182
108321
19.5123
347.402
126730
106913
196.469
137520
724.964
551.274
131391
997.752
140682
99.5691
987.544
2772.9
2054.95
253.877
73275.1
1344.26
3337.41
12754.7
3638.51
49.6178
2180.64
2685.63
24.8808
588.941
145.423
191.186
123072
2414.73
811.921
183.944
765.192
2314.48
109175
140939
15.991
125425
1847.04
41.9137
185.342
137424
92665.9
286.478
100604
1720.13
890.908
813.402
149.942
676.767
348.01
3190.35
838.738
119.472
253.148
130704
102953
179.012
147.606
9895.59
1026.5
15057.9
138605
1379.68
214.136
408.167
138348
125104
108842
506.574
82550
711.609
2623.27
983.376
1699.93
117341
85.9225
133760
306.106
255.698
17.2261
7395.39
38674.4
2324.85
135059
18.2899
2221.47
21027.6
15994
825.523
5259.12
231.726
165.855
125045
293.411
2660.98
1043.28
27787.3
2139.4
3393.35
1732.21
109894
135215
442.208
1437.38
634.1
325.298
2336.57
7990.42
384.87
336.107
85.0284
3400.8
239.552
991.415
22.4266
20.5483
136302
47.8679
795.602
122394
78.9345
1015.61
17470.3
104172
1144.26
244.491
244.009
738.601
646.11
7753.92
46712.6
2493.58
2510.02
135608
296.052
185.188
36.847
83.7933
140428
574.037
786.649
574.776
137998
109895
2327.93
2346.68
135811
176562
49.4314
18.3345
846.141
2265.61
33.886
90544.3
2153.2
48.9269
126922
1075.61
4468.8
136259
138395
40.7437
23524.2
2668.15
133.199
470.64
786.006
620.164
53.8587
34926.9
95784.8
2593.2
123184
554.086
2210.53
89603.2
152.455
2248.98
1689.9
101201
109685
1082.2
18938.6
1586.12
2305.32
1717.87
2375.17
2223.51
2087.31
559.36
110580
1299.61
489.713
112.099
107167
112761
39.4453
56.6338
115342
16212.4
24.9818
121639
351.578
96841.1
488.802
1114.62
864.542
483.797
262.739
52.3065
249980
991.848
128243
310.942
1603.2
128515
537.024
47.8983
2530.51
2298.61
124875
2276.71
127182
19.5005
516.516
817.514
383.859
183.489
290.045
245.449
49819.9
346.288
22.0771
249.443
2474.74
536.499
76329.8
125118
484.673
132638
47178.3
137922
1671.1
3403.12
194.141
101716
535.435
21.7223
239.363
340.471
164.714
16.8966
717.161
408.773
1330.56
1726.28
137099
2601.63
18.9756
665.082
84964.4
1231.75
2191.5
167465
2920.21
1149.71
53.7017
2202.24
3411.32
191.266
226.941
194.742
1608.2
128734
1592.48
97383
19286.8
2486.49
567.542
348.899
16.319
32.2015
661.971
133145
26.8905
2554.92
24.0448
688.73
131073
30048
128711
1004.42
505.045
2687.34
79599.2
431.117
122848
3314.55
364.643
95.2625
265.864
3239.59
1381.04
397.594
3347.58
2252.32
541.858
2252.92
5023.51
106345
125.712
122.479
764.576
258.287
192.634
3038.52
228.24
191.228
443.911
256470
1831.13
1695.73
1105.94
106419
125134
130443
679.212
2207.19
2471.43
116539
189.212
310.154
84.3624
969.185
26.8304
89.1529
1505.97
32.8895
2706.64
34.3103
129677
11178.2
1631.76
467.705
299.855
1348.33
409.397
136766
681.112
8948.45
298.896
133561
134408
36.9062
16.608
434.653
25.5724
140.097
1048.41
1851.13
123100
2285.76
135322
2111.27
613.323
193.54
1367.01
782.209
166125
132963
2764.21
5667.36
2208.13
2715.52
107310
301.587
237.727
604.004
38.6113
166031
551.762
136954
177.07
77.2995
37.0156
1177.86
420.846
1714.77
2097.89
106755
133164
17.821
29.7804
976.683
1202.22
200.92
12845.4
1847.18
8247.03
968.984
7071.38
130007
9815.76
361.941
95.0986
2079.01
2470.44
5547.01
282.068
1815.11
10636.1
922.78
16020
1401.47
34.7029
1257.95
113902
84799.4
111883
21.5032
128702
83255.5
3235.07
1203
38.956
2532.69
26.4006
129932
447.217
120.815
250.85
1443.42
443.623
126922
845.819
5833.85
135250
1400.56
1251.11
2693.25
1059.53
1455.43
1783.51
296.743
396.717
179.591
2169.95
119.846
18.1116
2769.73
82.1388
113768
23.0807
1127.34
396.436
2701.99
1129.94
233.454
18.6971
17.3065
497.819
117757
2697.14
291.883
140048
308.053
778.823
399.258
1888.22
73883.3
2182.39
138009
140085
295.234
22.5585
185758
264.778
564.882
3074
133167
403.713
2310.76
1503.8
1215.9
349.817
2642.76
1948.12
138502
105080
318.312
79903.5
94946.9
23.3127
1345.46
95902.2
130024
133525
3105.92
235.81
140479
1923.47
2253.1
315.548
88489.8
123740
82.3552
187.935
234.45
296.68
88303.2
265.039
329.293
1229.68
134436
4904.73
408.263
134806
138061
135356
139706
31.445
1779.35
113274
122086
668.683
2083.74
207.96
466.398
92426.1
2008.72
5219.94
109228
200.287
136869
138497
135659
263473
144.445
162.591
732.485
712.569
33596
24689.4
38.2359
14.3005
2455.29
981.049
412.674
4221.31
402.768
134477
1212.05
352.042
620.243
18.0448
2043.42
128970
170.185
144.638
141465
135375
2472.52
352.891
460.51
2141.62
269.457
132.863
1521.54
2643.56
128156
146255
137022
1419.29
3253.63
2646.87
143105
1138.44
2093.39
911.815
103216
352.715
130906
102279
2718.9
2395.41
100.99
18.8489
117114
853.517
514.669
244818
290.22
1353.57
2212.27
137605
635.543
454.67
103225
973.337
12473
103.301
110969
1994.68
136442
779.891
1079.27
3224.38
1056.81
85998.6
3339.7
380.152
2047.62
3971.52
606.445
131517
4076.94
87795.6
1161.17
2176.79
172.701
1011.1
8540.21
29.9446
2229.56
140796
84250.3
3728.53
133142
111.141
5435.53
275.54
39286.7
101.435
1893.82
134660
134403
235.244
1340.52
133557
24.1013
1279.83
673.353
427.449
1368.95
33.5224
189.505
921.476
117190
1455.62
4259.51
131175
3601.58
40.3671
1519.32
402.834
1132.65
151408
2502.12
136633
141207
1182.43
358.564
759.212
135793
104.583
416.291
1964.91
718.107
133849
38.3071
1632.1
3216.93
136849
133046
2837.26
127906
42.3264
346.374
134330
96764
1249.72
140722
35.3731
17.5993
138.977
10163
1661.97
146.678
99335.2
243.363
141920
100.394
116.052
323.639
37.4729
176986
170768
375.177
103601
450.275
338.416
133995
426.411
5489.59
748.241
1001.21
170.255
1134.07
19.3316
109384
498.935
34.7649
3353.76
671.667
268.11
3219.6
24.325
131561
341.482
142741
2386.31
740.975
129713
133084
115550
1232.64
118595
112339
1004.96
1485.95
243611
130358
24.754
369.969
118049
121130
552.18
133986
122333
137167
132675
66.3569
13.5973
2236.63
699.852
2712.99
7097.25
115993
2651.4
120913
57.7042
43.9581
1142.71
98527.6
127629
1610.35
316.913
124234
256.301
2418.22
1961.12
124.566
140898
899.236
131765
8830.3
1667.61
67170.1
2047.06
2324.11
467.276
220326
771.047
46900
471.049
129.581
3170.35
137266
136623
23.0485
466.923
87550.1
1086.96
2752.29
131157
69030
75389.9
1345.91
18.1759
111553
25560
132042
530.985
137789
87711.6
269.17
21.836
186.614
5330.98
133830
1707.67
79301.1
2600.88
290.503
1673.06
9903.27
265.916
2271.22
482.948
1704.03
2834.88
118118
2290.12
2194.96
130541
415.744
1052.34
104885
3260.22
1651.44
273.129
441.976
844.74
156.053
44.6585
1182.94
139278
2287.84
34.4168
1471.06
309.498
1702.67
750.899
70165.9
13967.9
742.696
114.066
18.7315
138803
2609.88
368.711
459.988
104153
173.854
131337
133126
15.9817
128958
136776
114.652
249.55
127581
1604
411.584
16.0383
17.3756
22.2485
13.8165
18.7089
24.4314
16.9984
13.4669
15.2044
850.069
6264.23
290.869
37.0348
91737
111.478
243964
253.852
35.2145
575.8
18.7899
114409
115.757
1393.35
162.272
1145.38
2091.84
56.2114
129678
587.569
725.182
1912.55
1548.64
15900.8
726.005
866.371
27.3293
2155.25
490.028
113465
1769.4
4824.65
135000
401.993
511.779
348.385
23.4801
43.334
355.797
483.789
118.989
119.548
130810
2773.8
149395
721.544
79755
135861
438.116
146144
3676.76
488.578
28.8123
7991.71
71.5086
114342
134727
453.051
287.478
332.753
244.373
137445
98315
2371.71
473.814
101733
838.762
36.6884
117799
223.416
2417.12
1064.7
2349.47
3319.92
116608
601.901
2544.24
979.44
419.646
69953.9
987.815
130642
139117
117717
125505
522.824
30.405
719.313
130113
3242.69
2815.75
504.463
269.059
15611.1
22.1759
56.1122
692.864
90770.1
10878.2
1192.11
104657
214428
920.929
6894.86
128161
135667
106052
44.9647
137546
2670.71
2473.64
92009.4
135494
173.804
135.295
134.528
15.6467
691.43
1256.54
144.03
194.267
2167.35
121791
2361.26
2954.5
9184.5
191.148
3234.11
244.11
1568.31
133698
2230.71
2410.37
746.391
3381.77
974.728
2089.75
3231.09
114475
203.254
726.642
191.062
121.469
3780.15
6584.59
116917
98301
189381
373.887
131649
298.524
1873.44
134.192
157.596
441.397
107.841
69445.3
1831.94
82788.8
578.977
1123.93
871.455
1958.7
132801
2448.36
1803.35
102.826
2278.5
21753.6
2167.5
122.182
2183.45
1560.31
923.885
3280.66
134675
783.135
503.428
133190
135755
381.891
1056.03
109872
6998.95
7983.98
132177
107367
55193.2
23.6252
1415.34
15.9184
123771
99.2133
2152.6
1967.14
3093.46
1667.29
36814.7
714.549
2241.48
133999
1726.79
105609
1260.66
106624
103770
1361.26
328.42
193.659
4129.66
77.9754
121.649
209.445
147.213
1983.26
7866.36
151.971
154.783
3127.04
987.538
29.2248
3455.71
1246.5
479.278
83332.7
128349
1141.93
2331.48
62329.7
133674
2308.35
84012.7
917.109
759.36
106106
135268
149336
166.493
8087.97
121642
1815.42
97086.3
81129.7
1148.77
131.939
170.674
327.991
2194.77
908.61
31.9613
42.3518
137344
136337
856.517
130070
1673.25
395.385
12506.7
3333.54
1432.67
134915
1024.1
2210.72
262.594
166.823
141177
760.72
126366
133248
309.299
121.287
84.8279
964.807
110013
262.8
966.197
177907
23
121300
408.185
116692
1889.29
20579
6791.46
505.586
249.861
650.191
2922.19
134003
2099.51
251.196
3583.21
458.6
17640.5
511.871
854.261
144.362
56.2314
135078
115162
1016.46
958.074
649.766
598.453
941.178
2234.24
97843.4
46.3858
1206.66
87163.8
602.89
141608
871.985
734.112
2964.3
136046
897.683
168.92
228.284
26.0413
1229.92
626.438
689.741
1107.13
213.043
1581.46
126.334
235.409
1480.75
2742.89
256.356
419.041
2124.04
48.3769
49.174
867.059
288.605
163.639
133061
153.594
355.514
136375
2245.06
2433.81
130289
137199
1228.7
2888.95
52187.1
135961
3293.87
133063
146443
1167.93
138594
17.1226
369.07
20.4059
73.5257
981.475
16558.4
2115.7
729.272
1126.39
136990
883.565
20.6421
576.387
286.698
265.163
26.1544
671.822
394.508
49.0761
3625.25
29.6221
127830
129234
4431.43
34.9794
117971
117740
81977.5
132353
581.835
1163.19
2471.32
12121.2
93.1611
3685.83
2821.07
29.9297
367.171
485.349
95.8258
561.783
92.1428
681.498
133920
321.968
241.745
173.083
93915.7
2430.22
623.12
139232
449.365
442.043
51.0638
222.331
1055.66
14314.2
595.564
134891
140879
134063
37.647
32542.1
29.4484
25.1175
879.523
2237.91
470.03
549.037
2532.31
334.938
130637
83.0407
1595.24
39.1364
141847
173.287
2243.1
34.0191
17702.1
530.956
238.433
135010
140233
26.6563
134567
44.3155
229.591
239.216
582.623
1846.89
281.685
423.832
133404
184.003
2588.32
13762.1
1531.68
91.0276
367.964
10440
549.983
130403
1158.95
3156.17
125651
239.946
724.349
510.285
1820.25
125663
125176
34.1642
86573.9
34.2406
138.001
133296
1676
2286.61
2331.13
2425.85
288.868
1119.93
116429
26540.9
146.468
1475.97
535.171
612.583
28912.3
405.601
155142
3190.75
2280.73
818.489
89.8018
27.003
255.5
26.7441
2590.53
107329
204.441
1140.9
138702
131.474
107044
136793
123653
577.114
361.91
683.49
2527.34
94531.6
2398.16
156.486
560.944
1252.58
56511.1
801.166
1086.76
396.137
135133
110446
2706.11
814.101
515.782
110.215
19.4978
18996.8
42.9112
19.0734
205.488
974.22
494.365
1792.63
17169.5
1560.48
588.684
1194.29
1571.64
49.0918
664.055
7490.71
2304.47
260.82
126.895
11873.9
2617.49
40.1298
3226.99
142750
107976
1197.05
93842.6
133296
773.161
17.8615
108271
1261.07
125.12
31.7631
100.387
125876
105478
110825
909.619
258.993
147.124
405.151
589.317
47.8116
4697.07
4641
71772.3
127293
1831.49
190.137
24.4022
114831
431.993
1152.38
32.8739
94.6361
1262.06
68105.3
80148.3
1208.81
1327.18
30798.2
2396.99
1053.07
133464
32.8956
1410.84
109346
137252
2341.68
108737
3245.74
103594
24.7269
38.3379
173.932
333.529
189.694
135446
321.445
22.614
406.563
1263.47
252.718
23.3256
2022.31
650.449
1078.63
284.206
125645
1757.24
184.754
239.058
2449.39
21.5394
126661
87.9095
1181.3
21.4636
871.98
20444.9
13.3725
122444
115374
136314
17.9764
381.217
135.55
2534.74
529.748
289.96
808.779
136266
18.6029
1944.93
1150.61
1534.91
523.695
652.209
102868
338.357
199.291
38.6889
1044.51
275.106
866.838
214.269
35.3741
478.23
712.019
3277.56
251.374
136782
3234.18
119.646
115.556
607.731
99695.7
73876.3
130012
2322.29
55606.1
382.926
1001.96
96024
799.025
133769
2066.44
300.092
973.867
416.236
128936
220.365
514.548
137221
135038
2472.92
133964
49.0226
130015
2313.56
54.0848
1626.77
3404.4
352.532
52248.6
140139
259.324
6461.21
417.458
136546
444.223
252.215
30778.2
22570
85672.7
101.807
137424
39.4571
1146.39
309.188
19.3063
96.1571
96.8757
4936.91
696.608
1528.97
137850
1561.02
123122
78869
71162.2
3544.79
41284
3408.45
885.427
22.1368
157.243
290.275
110634
563.509
24.0184
50107.8
136691
3764.15
545.642
2573.23
337.554
272.341
868.728
59.443
515.074
235.841
136501
1907.62
1147.92
390.99
33.5744
359.625
31.1176
1234.95
127983
15.598
406.383
2551.25
114676
182.853
13.6373
36.4254
2222.25
3302.95
547.231
1606.78
369.369
469.892
112.609
355.037
5526.28
3167.48
1155.31
2428.63
776.748
131794
2072.78
600.609
3648.09
28453.6
134087
2180.41
487.303
777.891
55.9468
440.897
175878
169.075
587.523
121868
243.855
197.902
163.299
67349
131309
137969
130261
143583
257.141
96013.2
1111.32
878.283
5161.42
35.0899
6197.39
20792.2
4479.81
126777
2750.66
86.684
3194.96
626.195
1325.25
1023.89
133102
1012.62
730.504
79.6871
1668.97
2203.7
358.655
128131
1088.87
93316.2
675.617
27.4832
141636
43.8995
127477
213.623
240.826
123.526
254.403
708.691
72.753
1096.95
186.948
2382.64
141.721
140.08
510.139
358.005
13.8087
128330
308.802
502.693
124866
33.5724
206.87
434.8
492.337
111289
4574.11
696.983
3109.98
135292
19539.1
177.766
673.257
3396.02
2833.74
28.0243
118.082
125.755
587.282
514.023
10292.3
70.5963
210.209
627.836
354.712
114260
387.805
77666
502.355
133856
35.1574
1948.95
84747.8
3407.73
27.9742
111009
124145
337.988
62311.7
2430.41
2505.66
134934
679.982
13680.3
89.6654
1607.05
91.2474
13.4745
301.203
2196.01
181.925
140.367
134830
126634
1982.94
1279.76
78285.1
371.341
254362
35.1786
1539.61
651.785
107.776
136720
162.745
16389.2
378.001
697.901
1408.25
2236.58
103.189
242.393
32.5522
2350.22
24.8055
5025.37
136486
134145
223.713
137853
363.219
2468.49
586.969
23.322
386.721
2705.01
577.375
257.131
218.316
396.08
118426
133180
1339.11
37.6948
128553
476.016
2576.39
59.7633
1382.57
569.877
21.1371
35.2007
31.9252
137545
14835.3
1690.11
937.134
144089
117.581
2275.56
479.112
337.302
2570.92
143902
428.477
14.9182
115950
2641.46
221291
41.4576
105217
102564
2337.05
734.393
2563.09
117136
261.625
6101.36
136274
222.384
137551
133828
366.594
135938
377.8
123856
882.764
1629.63
338.498
531.29
1961.53
34617.3
103230
1678.27
161.178
137941
544.514
147.507
318.063
212.701
136858
407.55
65536.4
114759
945.226
1010.8
684.698
2987.3
18.2242
130427
16080.6
504.517
130160
2570.28
2706.64
52121.1
419.662
482.773
2407.98
108427
128276
748.173
135529
183.203
1211.92
4314.55
92467.8
740.968
827.837
2190.41
2792.23
467.002
4734.38
484.55
79.7322
875.383
2835.91
129472
114.76
135776
584.196
142.339
662.817
16.9982
2171.69
311.117
824.259
16913.3
405.988
555.504
98025
149.861
167.459
92947.4
837.387
925.468
2620.52
2382.17
136735
140293
590.753
65898
3166.29
1281.33
42.3708
796.563
2543.74
2601.67
2202.64
9345.66
89.3905
236.174
26.0133
25276.5
35.0281
82224.8
454.414
1117.32
139.561
117186
2591.55
430.597
188.528
77.2649
509.227
2243.25
18.3104
102895
318.573
1803.31
352.305
42.1595
56038.3
822.437
135301
106892
1681.63
35.04
104.562
899.532
24.636
822.471
122861
2248.36
758.031
2351.9
131133
37.3865
24.412
137762
831.979
37.348
8633.23
454.24
898.766
29.8442
2349.92
114011
2830.2
134042
71.0713
135614
2058.25
2631.25
125881
1051.62
136363
3251.5
3748.97
131.246
34.4136
389.485
160.562
2119.61
25146.9
142976
130742
1535.78
31965.1
22.5211
113397
346.093
859.996
1569.64
2957
2308.58
1612.61
146.53
890.636
445.896
19.0762
66.7165
558.419
388.025
116.302
3039.17
5669.79
1111.8
1499.52
98618.4
572.576
1132.53
578.608
1607.68
125314
15124.2
117.103
35.9721
3011.23
923.777
381.374
128571
3355.85
1015.58
430.404
979.756
138706
133629
397.151
822.976
762.618
556.025
1075.98
57.4024
54.5792
136416
58.3364
1876.97
83840.1
1724.57
5782.76
131554
780.742
111454
2676.34
199.534
76248.7
7508.6
1262.32
132966
66.0412
135513
135575
123102
124.854
141010
2222.75
1758.32
804.852
326.881
97.5961
162518
143092
875.648
167.796
607.331
1165.13
134883
8550.5
2517.68
138019
102517
34.023
2464.01
134093
90664.6
644.135
135612
2802.97
721.221
445.753
128593
1273.35
1266.47
137625
390.596
2235.71
134205
17996
1513.46
137281
81.3756
127287
43.8758
2784.01
4521.81
2220.23
768.745
236.127
813.003
645.32
1515.02
474.442
75949.6
1187.53
879.008
106925
173.846
1601.74
147.97
2290.83
7297.71
385.867
29.5862
2377.8
2584.69
127.101
1744.25
640.532
1958.17
1307.7
18.0128
114.774
46.8387
137635
2564.81
4418.71
1059.25
78760.5
43266.7
140262
1332.26
2083.73
831.061
1369.07
2286.39
3131.94
576.308
324.311
103908
55968.4
163.902
3466.16
249.098
134079
64738.2
31.1427
506.052
9083.38
2351.53
139711
1438.89
621.133
117.144
415.314
139.331
51133
234.522
2011.35
96580.2
1191.67
2956.6
85214.7
3416.95
538.177
2161.97
1700.29
117836
143123
744.607
98677.9
143574
145004
55812.6
116840
408.269
66091.3
568.297
2214.39
17.7481
498.149
2900.17
3099.06
945.703
254.101
37662.2
651.996
1249.28
79.0086
88537.2
36336.6
611.589
136024
228.174
126195
140430
160494
161.366
2666.32
17794.1
332.077
319.74
1090
134568
2186.3
129943
114446
14.2955
19.1059
15.4284
15.2077
17.7462
25.2305
13.1406
21.3817
16.5701
785.186
55.9957
60474.4
579.278
117.597
54944.6
1073.39
1651.69
829.314
2519.83
5787.99
83976.8
1620.26
2464.78
47.3453
4286.73
127.735
3526.51
2241.18
2655.32
2413.2
415.924
2178.07
111340
1731.12
2240.34
3276.82
6506.97
363.606
2808.37
862.626
18.1932
258.103
63041.1
137650
58.1766
695.965
112.97
182.909
166.219
144.475
112.948
89658.7
110588
71841.1
107398
3087.96
79836
562.329
28.1675
1068.72
1058.86
1280.79
15.6923
39.1468
2287.36
78439.9
34.5323
911.134
28748.7
197.048
4868.08
342.424
1126.1
30.2234
3463.58
799.298
241.018
127026
441.637
2578.26
2187.11
33.6734
152.878
589.039
90218.7
137425
130053
395.958
2215.18
1365.38
490.829
710.631
162.732
1914.38
140050
134226
823.482
532.093
110228
91652.9
29.0294
137793
104833
321.303
1430.31
135440
110661
1972.24
701.441
3814.8
101729
6198.99
1531.22
3409.46
2602.37
1929.64
130092
10407.7
56.7921
128952
683.751
2996.37
379.046
12154.7
211.603
13.5945
1280.08
1899.92
2915.92
816.2
134762
35.4672
117707
117511
30.2127
7322.19
111766
97408.8
126321
5197.67
188.559
1071.17
1114.28
46.7232
327.162
2117.67
9037.51
2128.95
132131
64724.2
483.278
362.922
1064.65
106695
2115.64
41.7315
126.07
819.954
3706.73
101275
1084.52
1421.4
591.647
2009.47
52409.5
565.625
21.798
80.0693
37.7105
133421
117620
665.051
7491.35
120681
4602.16
122322
803.072
76482.9
686.381
128461
3936.09
2380.34
139881
45144.5
138967
600.083
914.665
1152.67
177.087
143.609
464.423
1674.43
184.645
1197.29
2101.51
3341.99
1547.77
18268.6
105755
136678
2449.71
134450
138439
136289
1030.55
45.209
11501.9
125078
798.97
660.476
178.318
682.72
278.078
420.478
883.704
101083
122581
73232.4
8472.85
553.876
389.648
22.8423
135628
46801.4
196.449
408.672
104048
868.718
13313.6
118761
75.4769
317.38
431.73
310.949
994.648
268.239
6236.24
232.435
136306
1660.8
2602.42
136468
2382.72
103071
138459
139141
2276.03
135187
386.445
32150.6
122302
56.8416
2149.5
118719
37785.1
46153.3
2661.99
27574.6
607.127
2283.72
305.461
191.55
655.169
19.9214
2246.07
602.304
168.655
461.08
2697.13
390.236
6819.19
2871.14
823.077
170.065
92.8389
125.984
394.723
28.3511
71.4468
601.704
228.912
3339.78
13004.1
1351.43
1631.89
40859.1
608.373
1297.47
136536
135730
3593.28
100.416
2023.35
1986.49
68735.6
156.967
2092.69
199.625
2584.97
123.426
2258.09
2602.44
303.389
2167.61
2772.53
884.759
20.0358
140734
84924.7
532.032
3803.53
1705.04
2386.71
134223
1475.09
110452
3141.5
5271.79
428.282
567.572
111.879
143550
2381.75
105160
2685.44
893.269
122103
2639.62
41.0626
136202
870.338
119586
336.263
134.175
2096.32
498.353
122948
120.721
99.1002
59518
6757.85
3057.99
41510.2
4941.91
2131.36
592.742
1538.11
521.056
1183.81
1267.48
87725
79326.3
141591
133954
152.039
289.201
609.991
19760.5
24.6489
44283.7
18.2813
147475
2055.26
198.9
116.739
1742.66
356.211
5853.99
102181
32935.1
569.386
75405.3
131900
587.162
2313.54
2548.19
907.256
18.3569
3158.13
172.455
875.539
125475
117087
2345.45
35524.6
175964
3216.7
360.915
25.6647
1049.29
16285
69604.2
515.209
1064.28
555.857
813.5
2283.46
134793
522.771
120208
3658.62
1053.27
1292.09
159.147
512.48
12018.3
184.289
2340.75
119497
3275.05
733.019
2298.35
83790.3
128.363
126.298
2306.18
1656.31
372.707
4718.09
5515.44
223.419
115200
737.837
173225
172.352
126936
16798.2
3133.31
2145.01
484.033
119273
2120.07
111109
27.8991
1193.42
1543.49
1250.19
151.134
2630.35
1108.27
662.227
123244
111390
999.252
111.262
413.099
292.461
1177.61
116186
39.4277
1897.92
118335
2645.32
2140.73
57462.3
119117
173.366
134711
2243.96
136364
3425.82
136.664
356.734
2394.21
104839
375.438
2104.24
2626.31
4182.25
1809.83
896.157
72724.1
130842
535.185
566.905
1025.44
1358.45
74293.6
12618
111389
352.134
165.89
2341.84
52925.8
9294.81
265.257
255313
179.62
2333.6
137929
391.845
22879.2
53090.2
2094.85
20.7722
17.5103
18.8622
12.5907
23.4332
17.971
21.0263
14.2273
20.4342
15.8044
20.3408
16.015
16.6239
15.2414
13956.6
2661.99
2843.16
1170.5
1437.84
398.823
366.414
39.0202
119353
692.022
174491
141203
4869.94
113609
413.31
196.555
2610.19
14776.8
2831.48
96366.3
61810.9
48.7926
143365
2250.36
341.74
88217.6
2100.19
108137
163.26
55456.6
245.902
127008
94.7311
128332
228.771
144110
326.955
3056.42
5001.82
122805
886.189
114543
135519
230.179
763.293
484.757
1412.99
656.136
62050.9
362.116
134796
2728.26
2537.73
99312.4
35.911
130810
84020.3
115617
2562.67
563.183
3606.99
2028.75
61766.2
137240
371.932
114388
3316.55
136610
102.215
1492.8
2841.51
301.126
3236.46
1001.51
188.351
266395
2968.8
130052
383.394
515.781
2604.06
2360.55
1965.01
48173.1
135269
110729
1908.03
343.922
101916
15476.1
1737.86
99.5601
114212
7783.82
60930.9
2111.1
128909
418.512
12039.8
1074.39
1015.33
138635
59133.1
118.71
80343.7
896.863
542.828
137681
52252.7
91683.3