/*--------------------------------*- C++ -*----------------------------------*\
  =========                 |
  \\      /  F ield         | OpenFOAM: The Open Source CFD Toolbox
   \\    /   O peration     | Website:  https://openfoam.org
    \\  /    A nd           | Version:  8
     \\/     M anipulation  |
\*---------------------------------------------------------------------------*/
FoamFile
{
    version     2.0;
    format      ascii;
    class       volScalarField;
    location    "6e-05";
    object      rho;
}
// * * * * * * * * * * * * * * * * * * * * * * * * * * * * * * * * * * * * * //

dimensions      [1 -3 0 0 0 0 0];

internalField   nonuniform List<scalar> 
23640
(
0.000393525
0.000795431
2.50912e-05
0.116142
0.00104011
0.00281304
0.000686704
0.00170919
0.00248118
0.00396384
0.112198
0.00123207
0.000919783
0.000889073
0.00414884
0.00234062
0.000198794
0.0812942
0.0990975
0.00267458
0.108914
2.28235e-05
0.108313
0.1074
0.0014218
0.000955002
0.0153197
0.00354723
0.000129596
0.00125262
0.000769822
0.134969
0.109059
0.00161674
0.00273802
0.00368056
0.000211971
0.000451321
5.54684e-05
0.114759
0.00126767
0.00257336
0.00104202
5.52659e-05
0.114647
0.0192814
0.000386538
0.000901684
0.00396823
0.00167062
0.119671
0.0834702
0.00347408
0.000253843
0.116049
0.00236728
0.0040142
0.00113982
0.000403999
0.115228
0.00074633
0.020178
0.116996
0.0862647
0.000465132
0.0858114
0.0020508
0.00130349
0.0735224
0.00109238
0.116739
0.00158726
0.0998674
0.000204874
0.00259287
0.132551
0.00255427
0.000887549
0.099764
0.116604
0.0224945
0.00579696
0.000473183
0.000469355
0.000445345
0.00324163
0.0831141
0.112833
0.101095
0.00396879
0.00049572
0.00124062
0.00395304
0.100101
0.082153
0.00134236
0.0877678
0.00278412
0.00233153
0.003882
0.00388476
0.000256678
0.107067
0.000261323
0.00210622
0.000421941
0.117538
0.000202782
0.00127315
0.002226
0.000676414
0.100076
0.00184084
0.00126124
0.0112366
0.000135962
0.00411641
0.000629334
0.000348102
0.00132743
0.107735
0.113789
0.00285174
0.114858
0.00703736
0.112008
0.125134
0.00687794
0.00282066
0.00117013
0.00523004
0.00395051
0.00096103
0.00975114
0.000303045
0.112679
0.111416
0.00137437
0.111792
0.090699
0.00233058
0.00404973
0.0987747
0.112245
0.098018
0.0016838
0.113822
0.11489
0.000509089
0.078509
0.00164399
0.00286035
0.00051422
0.116889
0.00408113
0.000278557
0.000690284
0.00167364
0.00209174
0.0150641
0.00392073
0.00324516
0.00361123
0.00159546
0.00011207
0.000100687
0.117777
0.0134002
0.117486
0.00387251
0.000898851
0.0102611
0.00251835
0.00123066
0.117538
0.117626
0.00117213
0.0115185
0.116711
0.00102595
0.114681
0.00239584
0.00136979
0.00283143
0.000130153
0.0482565
0.00661662
0.00350932
0.115438
0.00309063
0.00331269
0.112787
0.113756
0.00050233
0.000179829
0.114139
0.00215656
0.00369441
0.00287637
0.0105678
0.105878
4.0197e-05
0.000477365
0.00258848
0.102266
0.0004326
0.00307191
0.10854
0.00798909
0.117773
0.000929546
0.00125015
0.000826545
0.000432886
0.00282767
0.00187137
0.00104888
0.00260171
0.00202868
4.4052e-05
0.000881072
0.112164
0.106091
0.00125356
0.10722
0.0017518
0.000969068
0.114304
4.53168e-05
0.000496059
0.000431818
0.000166855
0.00216811
0.00117641
0.0016567
0.00570397
0.116584
0.00187992
0.000511491
0.0212175
0.00422116
0.0102288
0.00127663
0.00264935
0.116382
0.000224627
0.000959039
0.00257053
0.116504
0.110856
0.115138
0.000957451
0.00038543
0.11756
0.00040495
0.114758
2.42079e-05
0.000181335
0.117062
0.117221
0.115285
0.000671165
0.00376202
0.00130194
9.95359e-05
0.00104101
0.0109187
0.00235076
0.000406522
0.0797606
0.00341445
8.10934e-05
0.108093
0.115483
0.00698697
0.00170332
0.000124592
0.113907
0.0865393
0.00120657
0.112456
7.60128e-05
0.04669
0.112997
0.0029529
0.0201446
0.00199527
0.00366544
0.000694494
0.112738
0.00167091
0.000174271
0.00176388
0.00184636
0.111564
0.00188801
0.00114911
0.00022019
0.0010857
0.000256475
0.0140566
0.087379
0.113882
0.00138579
0.110564
9.55109e-05
0.00445858
0.0141251
0.115599
0.0991395
0.00017161
0.00611252
0.117555
0.0994036
0.105456
0.0102316
0.00331799
2.31275e-05
0.0834114
0.00260407
0.000409335
0.00165759
0.00282634
0.00342096
0.000303594
0.00541284
0.11612
0.00187145
0.000532023
0.126186
0.0469479
0.00168689
0.00286233
0.00462776
0.00211755
0.00142828
0.00267844
0.00320067
0.00191847
0.00108551
0.00284544
0.093244
0.00405236
0.114164
0.113126
0.0783464
0.0164013
0.00122775
0.00165781
0.00222165
0.117283
0.00492165
0.000181488
0.000624499
0.00273098
0.000101014
0.00104702
0.000557878
0.117056
0.112439
0.00636866
0.109888
0.090329
0.000229669
0.00178686
5.36758e-05
7.03081e-05
0.00344621
0.0997169
0.00115737
0.00876875
0.0922053
0.000173103
0.105852
0.00680991
0.000183357
0.116099
3.77236e-05
0.0018648
0.0110854
0.0990715
0.0914897
0.00186732
0.0928631
0.00217253
0.00029463
0.00395266
8.64249e-05
0.114339
7.12285e-05
0.0760432
0.00321311
0.00261827
0.00362896
0.00403785
0.110722
0.113754
0.000441015
0.000371652
0.0144091
0.000213676
0.117813
0.00384149
8.88131e-05
0.00093162
0.000958941
0.116264
0.000139829
0.00425991
0.00221687
0.00372531
0.11651
0.117568
0.00276969
0.113871
0.00122838
0.0189722
0.00106297
0.00351796
0.0020723
0.117136
0.0768275
0.00105681
0.00356553
0.00449662
9.3034e-05
0.114519
0.00291088
0.110202
0.00165905
0.000138338
0.114349
0.117599
0.107915
0.00693322
0.113304
0.00925406
0.00379657
0.0171227
0.116032
0.00473272
0.117173
0.00345719
0.00399683
0.0367336
0.0022379
0.0157469
0.00375032
0.107825
0.0034551
0.217107
0.0021192
0.117565
0.00336005
0.0708638
0.000314856
0.000646916
0.0044359
0.117054
0.00395445
0.00353844
0.00291694
0.00179104
0.152944
0.00411578
0.00133088
0.00401899
0.00239901
0.00351397
0.0033263
0.00497962
0.00146054
0.115184
4.99919e-05
0.000300047
0.0209848
0.00097062
0.150572
0.00592261
0.121963
0.0022151
9.98209e-05
0.00283985
0.00401464
0.00400394
0.00728974
0.108588
4.60971e-05
0.000803328
0.00031794
0.010494
0.121797
0.000838955
0.109836
0.00179176
0.000960077
0.0038546
0.0433521
0.00893305
0.000520709
0.00131682
0.115689
9.21182e-05
0.00158313
0.00150764
0.000403032
0.00391076
0.000151819
0.000168641
0.000936318
0.0205148
0.000397817
0.00343279
0.00322306
0.107032
0.00140362
0.00174638
0.000172037
0.0026814
0.113998
0.00356991
0.0709974
0.218876
0.00400865
0.000733785
0.00186069
0.10567
0.0032482
0.0995423
0.000395527
0.00101957
0.107618
0.006996
0.00332064
0.00269523
0.00109128
0.00355283
0.00360518
0.000200538
0.00236337
0.00169555
0.00147971
0.00184336
0.00105684
0.000315507
0.000983856
0.00395485
0.0994828
0.00147084
0.0014676
0.0197182
0.00117306
0.00254456
4.41928e-05
0.0162849
0.00107694
0.00140763
0.0101403
0.111256
0.117528
0.00103642
0.113917
0.00153917
0.0108183
0.0932727
0.107867
0.00249042
0.104124
0.0144338
0.00386549
0.204028
0.000984309
0.00181029
0.000366483
0.000596771
0.0995368
0.00294878
0.00336951
0.00264939
0.000330621
0.114243
0.00247321
0.000560946
0.0033307
0.0999942
0.101995
0.00155593
0.0026635
0.000915766
0.104297
0.116578
0.00155633
0.0012389
0.00261419
0.000402819
0.0844655
0.0024609
0.00978646
0.00147784
0.00356436
0.113671
0.108207
0.116957
0.00654704
0.00110362
0.0026084
0.00459797
0.000325016
0.00148146
0.105432
0.00127741
0.00163297
0.00128996
0.00138456
0.00318218
0.00443416
0.00282785
0.00189438
0.000294568
0.115082
0.102047
0.00116917
0.00148079
0.116653
0.0010106
0.0816301
0.000901895
0.106446
0.00131341
0.00348102
5.76909e-05
0.0023408
0.000140162
0.00103003
4.42383e-05
0.115614
0.00134341
0.000928333
0.000440926
0.0037956
0.00262486
0.00284505
0.114025
0.000926886
0.00238608
0.00245715
0.106063
0.00924021
0.000300551
0.00122779
0.00409723
0.114492
0.0978749
0.000491076
0.00250887
0.115843
0.0090744
0.108854
0.000982397
0.00117584
0.00278095
0.0162686
0.000136956
0.00573666
2.23191e-05
1.93062e-05
0.000541175
0.114561
0.0999252
0.00272719
0.114026
0.00208655
0.000966133
0.00463682
0.0879584
0.000268129
0.00111378
0.00119713
0.000335425
0.115792
0.115177
0.00270906
0.00142426
5.58903e-05
0.00156772
0.000233928
0.116113
0.00150613
0.0212574
0.113966
0.00012308
0.00248495
0.0685055
0.000703931
0.0688056
0.000159784
0.00352188
0.00196365
0.111883
0.00175215
0.137693
0.0869155
0.00185555
0.108384
0.000441662
0.00179967
0.114489
0.00423904
0.115581
0.00366283
0.100745
0.112796
0.00754265
5.30884e-05
2.0468e-05
0.0035917
0.0033102
0.000671369
0.10741
0.00341492
0.003017
0.0202342
0.00333637
5.9305e-05
0.00385975
2.22572e-05
9.249e-05
0.000212576
0.00190892
0.116586
0.00202963
0.00049121
0.116047
0.113431
0.000307083
0.00165927
0.00274995
0.00123254
0.116142
0.00221377
0.00170219
0.00152449
0.116243
0.00653831
0.000221624
0.0533397
0.000544832
0.0844384
0.000147428
0.00115527
0.0542043
7.04671e-05
0.00178926
0.00104684
0.00137323
0.149958
0.010578
0.000224348
0.0814322
0.115952
0.000601245
0.000400904
0.0660812
0.00219175
0.116426
0.00272098
0.113934
0.00204759
0.0944124
0.00381445
0.00376742
0.00242479
0.0175975
0.00185103
0.102722
0.000977037
0.117659
0.00263422
0.0731845
0.00356951
0.00296776
0.11554
2.85809e-05
0.00367485
0.00291107
0.12286
0.00896859
0.000156268
0.0028118
0.00184191
5.60846e-05
0.00386071
0.0964639
0.00135438
7.27247e-05
0.111414
0.00152239
0.116726
0.000253827
0.114953
0.00263328
0.00430229
0.00172859
0.000680057
0.00335899
0.115618
0.000672883
0.100091
0.115239
0.00108123
0.00339128
0.106383
0.00111471
0.116271
0.00298267
0.00333665
0.000625019
0.0852416
0.00415823
0.00126976
0.00264405
0.00231348
0.0936532
0.00373961
0.00315918
0.115041
0.00548409
0.000580135
0.00327005
0.0669907
0.00111936
0.0105463
0.000441884
0.0877472
0.00179733
0.00208235
0.00286802
0.0386559
3.41427e-05
0.000981981
0.0879925
0.00341265
0.110679
0.00190581
0.00029646
0.000262272
0.116903
0.00113418
0.115758
0.00113109
0.00112935
0.000939614
0.00449196
0.000836286
0.0972011
0.210964
0.00233981
0.00459925
0.00263609
0.00436764
0.0037275
0.00039319
0.00134812
0.117673
0.0207424
0.000893076
0.110374
0.000445976
0.113997
0.00375862
0.00628771
0.115725
0.117092
0.110925
0.144847
0.000121152
0.115839
0.0238192
0.000358308
7.18835e-05
0.00282615
0.000888188
0.0875729
0.000790689
0.00671753
0.00363639
0.116651
0.00528757
0.116206
0.000942177
2.69938e-05
0.00945123
0.00126767
0.00313031
0.115169
0.003837
0.00224886
0.00172768
3.67968e-05
0.106623
0.105221
0.00358246
0.000982856
0.000793411
0.067714
2.83061e-05
0.00508791
0.00156861
0.00269886
0.000266217
0.00886233
7.02464e-05
0.00415946
0.00369001
0.116269
0.00136183
0.0253379
0.11748
0.10358
0.115308
0.00272058
0.0937868
0.00126179
0.114739
9.2704e-05
0.0037498
0.000173281
0.00265332
0.00349147
0.132972
0.0873143
0.100025
2.26259e-05
0.0018775
0.115065
0.00619452
0.00392476
0.000994974
0.00218944
0.116077
0.00298011
6.6548e-05
0.00341108
0.00291193
0.115461
0.00447738
0.115581
0.0702073
0.000181887
0.000631331
0.00118087
0.111985
0.000321932
0.00358
0.000589609
0.000919142
0.117742
2.99247e-05
0.000804835
0.000166189
0.00269854
0.000479457
0.102534
0.000559408
0.00121931
0.00164596
0.000889204
0.115822
0.000410805
0.000905803
0.10853
0.000371572
0.112582
0.00228249
0.0030878
0.000951516
0.00151822
0.00366458
0.00179527
0.116797
0.00271891
0.000524186
0.00130652
0.000893642
0.000954593
0.100047
3.89079e-05
0.00100386
0.112891
0.098929
0.000462073
0.116467
0.0017888
0.00152072
0.115909
0.00227579
0.115596
0.000403386
0.00228315
0.00363003
0.00362194
0.000590775
0.0738258
0.00312364
0.00390882
0.0185656
0.00653274
0.00018275
0.00268996
0.00286316
8.34801e-05
0.00153641
0.00047932
0.000670481
0.110204
0.00385167
0.00143991
0.000650595
0.00198785
0.00239698
0.100604
0.11462
5.40693e-05
0.111939
0.00399629
0.000117978
0.000648967
0.116928
0.0869034
0.000917942
0.0943847
0.00374171
0.00175501
0.00208502
0.00046337
0.0017034
0.00102814
0.00408137
0.00201511
0.000368873
0.000586737
0.115468
0.093747
0.000636815
0.000442809
0.0147544
0.00227902
0.0210325
0.113934
0.00297001
0.000697359
0.00121143
0.114449
0.111658
0.10042
0.00133982
0.0811053
0.00172138
0.00277838
0.00243026
0.00268904
0.106235
0.000220797
0.116627
0.000967022
0.000505923
4.26054e-05
0.0119736
0.0446096
0.00287699
0.117649
6.62221e-05
0.00386755
0.0264804
0.0212892
0.00192487
0.00921543
0.000757846
0.000589929
0.111712
0.000886996
0.00363561
0.00245569
0.0345361
0.00229222
0.00416201
0.00350958
0.101063
0.1177
0.001287
0.00328145
0.00161094
0.000902212
0.00445631
0.011864
0.00106287
0.000986514
0.000280942
0.00363289
0.000796965
0.00229062
4.32625e-05
3.29417e-05
0.116692
0.000158781
0.00187594
0.110017
0.000200815
0.00233588
0.0236666
0.0968987
0.00226559
0.000789135
0.000785996
0.00174972
0.00164665
0.0122131
0.0521054
0.0030716
0.00511113
0.117801
0.000904728
0.000420832
0.000131106
0.000269496
0.11387
0.00150833
0.00204114
0.00151096
0.114437
0.101214
0.00299254
0.0030109
0.117587
0.142696
0.000186574
5.00234e-05
0.00195053
0.00268874
0.000113901
0.086992
0.00263841
0.000171497
0.112956
0.00199282
0.00743147
0.116732
0.116177
0.000128794
0.030278
0.00426601
0.000446771
0.0012441
0.00143351
0.00168216
0.000190086
0.0410518
0.0877491
0.00523986
0.110495
0.00153709
0.00320555
0.0865216
0.000496462
0.00436404
0.00366943
0.0949373
0.10058
0.00262946
0.0257337
0.00327955
0.00319563
0.00369007
0.00272179
0.00361413
0.00384761
0.00147887
0.101691
0.00284425
0.00133985
0.000306685
0.0991697
0.103149
0.00014287
0.000174591
0.105008
0.0213699
0.000100041
0.109215
0.000960661
0.0917889
0.0013037
0.001576
0.00197046
0.00130966
0.000864786
0.000174088
0.20203
0.00170156
0.113763
0.000935128
0.00330988
0.11393
0.00151342
0.000177823
0.00513159
0.00359131
0.111479
0.00274412
0.113109
7.89131e-05
0.00146797
0.00191208
0.00110541
0.000422133
0.000925022
0.000788946
0.054928
0.00100499
3.89576e-05
0.000786169
0.00378601
0.00141303
0.076243
0.111749
0.00132937
0.116216
0.0521716
0.114932
0.00364706
0.00377174
0.000650766
0.0952075
0.00138882
1.96529e-05
0.000797451
0.00104513
0.000571781
3.80347e-05
0.00178397
0.00121959
0.00298734
0.00243871
0.117471
0.00315648
5.28644e-05
0.00167935
0.0829834
0.00215985
0.00262152
0.135457
0.00337827
0.0027056
0.000200755
0.00317048
0.00650823
0.000654275
0.000463222
0.000646489
0.00329899
0.114014
0.00287684
0.0921204
0.0259618
0.00494456
0.00148881
0.00106964
2.14868e-05
0.000114305
0.00167458
0.116864
4.88735e-05
0.00273832
2.25113e-05
0.00171453
0.115645
0.0367705
0.114074
0.00229306
0.00136716
0.00316733
0.0788463
0.00126113
0.110146
0.00361543
0.00106441
0.00029956
0.000839813
0.00321414
0.0029943
0.00118435
0.0039362
0.00387184
0.00142512
0.00273569
0.00894782
0.0985491
0.000476304
0.000436887
0.00186375
0.00085258
0.000653535
0.00457178
0.000749629
0.000635367
0.00117218
0.207275
0.00362939
0.00280704
0.0025976
0.0985939
0.11174
0.115264
0.00169924
0.00360327
0.00503273
0.105759
0.000663928
0.000918271
0.000277217
0.00236104
8.23183e-05
0.000295862
0.00336225
0.000124326
0.00459331
0.000118356
0.114859
0.0149852
0.00360265
0.00127593
0.00095728
0.00247428
0.00120765
0.117546
0.00170151
0.013507
0.000954137
0.116811
0.117256
0.000141204
6.18895e-05
0.0012188
5.05506e-05
0.000443721
0.00245727
0.00392311
0.110317
0.00425322
0.117379
0.00261664
0.00166827
0.000649684
0.00307048
0.00202257
0.134299
0.116777
0.003276
0.00928004
0.0044615
0.0030174
0.099221
0.000923875
0.00079489
0.00163044
6.91594e-05
0.134201
0.00145687
0.11675
0.000595076
0.000252789
0.000126953
0.00259453
0.00124761
0.00357718
0.00282281
0.0988421
0.116868
2.31479e-05
9.2133e-05
0.00225542
0.00229982
0.000681633
0.018555
0.00361354
0.0123553
0.00235681
0.0115811
0.114793
0.0151137
0.00110354
0.000342448
0.00276509
0.00390425
0.00904417
0.000907009
0.00392646
0.016332
0.00230972
0.0218147
0.00300062
0.000112276
0.00158227
0.10363
0.0818215
0.102253
8.04976e-05
0.114042
0.0815792
0.003803
0.00264542
0.000147294
0.00310585
7.86889e-05
0.114984
0.00130426
0.000431106
0.000834534
0.00320656
0.0012197
0.112942
0.00216442
0.00972294
0.117358
0.00220491
0.00161224
0.00351824
0.00253852
0.00210943
0.00389088
0.000895785
0.00112886
0.000601305
0.00278968
0.000396994
2.46126e-05
0.00305904
0.000290309
0.103881
9.23567e-05
0.00197174
0.00113522
0.00472426
0.00148185
0.000456771
4.70557e-05
4.4343e-05
0.0013517
0.106656
0.0027836
0.000885377
0.115674
0.000937214
0.00201596
0.000877983
0.00378717
0.0743831
0.00244884
0.114797
0.115634
0.000939951
2.30886e-05
0.150126
0.000826131
0.00154486
0.00559123
0.116849
0.00113648
0.00398609
0.00341776
0.00267079
0.00107276
0.00289585
0.00409158
0.115723
0.097571
0.0010019
0.0790703
0.0896199
4.66711e-05
0.00294944
0.0911136
0.114822
0.116701
0.00366359
0.000789548
0.115823
0.00287289
0.00383413
0.000993291
0.084825
0.11086
0.000289745
0.000619302
0.000785627
0.000945378
0.0853018
0.000869657
0.000923809
0.00269864
0.117426
0.00823837
0.00121247
0.116917
0.114381
0.117443
0.115113
9.90207e-05
0.00389303
0.103282
0.109541
0.00178446
0.00425867
0.000714948
0.00124956
0.0883989
0.00236955
0.00869902
0.100589
0.000693719
0.11639
0.116073
0.117632
0.212936
0.000491093
0.00058718
0.00177882
0.00186495
0.0397032
0.0303844
0.000131351
4.35248e-05
0.00461436
0.00227296
0.00116363
0.00711229
0.00120292
0.117151
0.00169466
0.00108041
0.0015672
6.77176e-05
0.00401697
0.114186
0.000612698
0.000444363
0.116062
0.117749
0.00327889
0.00102915
0.00125352
0.0041725
0.000852349
0.000404568
0.00339175
0.0029135
0.113874
0.118314
0.116783
0.00212595
0.00353535
0.00316031
0.116973
0.00149219
0.00411055
0.00214675
0.0950728
0.00100536
0.115626
0.0956279
0.00482755
0.00346924
0.000343709
2.28741e-05
0.106318
0.00201434
0.00135581
0.19786
0.000929457
0.00216824
0.00390326
0.116338
0.00161496
0.00125202
0.0963168
0.00167003
0.0181965
0.000415254
0.101319
0.00426148
0.116739
0.00185049
0.00262744
0.00408282
0.00165056
0.0835758
0.00383136
0.0010242
0.00379573
0.00738466
0.00161973
0.115654
0.0075516
0.0851246
0.00258864
0.00373644
0.000596401
0.00229647
0.0136971
0.000116482
0.00382448
0.114415
0.082308
0.00558323
0.116899
0.000228744
0.00878294
0.000850087
0.0452701
0.000409014
0.00227776
0.117069
0.117102
0.000762582
0.00289286
0.116524
6.89927e-05
0.0030067
0.00179677
0.00119799
0.00289852
0.000111531
0.000664048
0.00216011
0.106371
0.00311799
0.00773036
0.115558
0.00682065
6.4072e-05
0.00319478
0.00115031
0.00245381
0.122589
0.00501158
0.117709
0.11485
0.00261816
0.0011021
0.00164555
0.116891
0.000325654
0.00117732
0.0028504
0.00174454
0.116646
0.000138662
0.00324865
0.00365282
0.117654
0.11678
0.00435408
0.113569
0.000150008
0.00101251
0.117362
0.0917168
0.00293935
0.114344
0.000118594
4.00827e-05
0.000377331
0.01556
0.00344173
0.00034151
0.0922424
0.000717498
0.115218
0.00033156
0.000247052
0.000909661
0.000117122
0.143037
0.138012
0.00108301
0.0966466
0.00123136
0.00102028
0.117232
0.00118876
0.00951522
0.00196247
0.00223555
0.000612094
0.00252927
5.37028e-05
0.100582
0.00135469
0.000124335
0.0064501
0.00168912
0.000827508
0.00363638
9.55189e-05
0.115659
0.00073957
0.116508
0.00338916
0.0016684
0.114778
0.116841
0.105148
0.0027049
0.107324
0.102841
0.00246569
0.00309334
0.196883
0.115241
3.79556e-05
0.00112926
0.106929
0.108824
0.00145737
0.116688
0.109966
0.117416
0.116345
0.000187888
4.4599e-05
0.00264395
0.00173164
0.00389512
0.011309
0.105334
0.00292669
0.108825
0.000206982
0.000139514
0.00155957
0.092909
0.113521
0.00328486
0.000997639
0.111166
0.000798783
0.00267691
0.00385121
0.000258757
0.114294
0.00176278
0.116093
0.0140825
0.00344227
0.0688524
0.00401768
0.00319418
0.00127149
0.17808
0.00187289
0.0524191
0.00135985
0.000399086
0.00381217
0.116015
0.1166
9.34346e-05
0.00134442
0.084752
0.00170078
0.00550899
0.115769
0.0705708
0.0755136
0.00295042
6.95967e-05
0.102289
0.0323766
0.116018
0.00136934
0.116181
0.0831349
0.000830605
2.59663e-05
0.000637016
0.00935258
0.116949
0.00372496
0.078395
0.00341252
0.000883127
0.00250825
0.0153663
0.000849974
0.00346776
0.00129899
0.00348055
0.00334404
0.10692
0.00362139
0.0030485
0.115378
0.00114926
0.0025635
0.0976391
0.00621955
0.0034151
0.000853923
0.00121485
0.0021123
0.00052695
0.000165845
0.00218939
0.113777
0.00309913
0.000130763
0.00305787
0.00094334
0.00327636
0.00196529
0.0714023
0.0197367
0.00183522
0.000360949
7.09295e-05
0.113876
0.00384365
0.0010243
0.00125164
0.0969367
0.000621789
0.115644
0.116642
6.04131e-05
0.114218
0.117654
0.00038702
0.000832617
0.113504
0.00324419
0.00117139
6.0849e-05
6.99604e-05
3.77782e-05
4.54309e-05
4.31727e-05
3.3813e-05
6.74414e-05
5.00389e-05
5.86074e-05
0.00216859
0.0105764
0.000634355
0.000135752
0.0878775
0.000372913
0.197168
0.000734757
0.000125047
0.00159159
5.32429e-05
0.104282
0.000374631
0.00310066
0.000546517
0.00270196
0.00396408
0.000199883
0.114796
0.00153119
0.00192567
0.00358875
0.00332334
0.0211839
0.00191281
0.00220108
3.34428e-05
0.0030422
0.00133989
0.10361
0.00367544
0.00806723
0.117231
0.00114788
0.00138095
0.00102973
5.8684e-05
0.000165642
0.00103716
0.00133736
0.000463524
0.000425651
0.11548
0.00285659
0.121044
0.00178962
0.0787879
0.117798
0.00116538
0.118561
0.00691515
0.0013933
4.16557e-05
0.012341
0.000232672
0.104288
0.117058
0.00119546
0.000889448
0.000945401
0.000789228
0.115629
0.0911411
0.00409493
0.00136123
0.0952326
0.00201871
0.000130572
0.10663
0.000649349
0.00431337
0.00254557
0.00266998
0.0061733
0.105031
0.00155036
0.00507307
0.00220328
0.00112999
0.0712739
0.00231333
0.115189
0.114964
0.106628
0.11194
0.00138744
9.19636e-05
0.00189577
0.115106
0.00353681
0.00339843
0.00136482
0.000861762
0.0219477
5.28416e-05
0.000174554
0.00184018
0.0870971
0.0164504
0.00198759
0.0973617
0.173316
0.00138612
0.011152
0.113902
0.117774
0.0983808
0.000142285
0.115542
0.00432777
0.00457694
0.0880739
0.116857
0.000622335
0.000511466
0.000500458
1.99178e-05
0.0018406
0.00296348
0.000303047
0.000652801
0.00261943
0.109553
0.00298868
0.00526324
0.0137785
0.000669616
0.00361903
0.000784034
0.0030903
0.116902
0.00432231
0.00297615
0.00182041
0.00405236
0.00222007
0.00443467
0.00373167
0.104304
0.000686046
0.001796
0.000670355
0.000430818
0.00564497
0.0105374
0.105216
0.092727
0.153059
0.00107929
0.116045
0.000949065
0.00377961
0.000507607
0.000531575
0.00129026
0.000427613
0.0707356
0.00297311
0.0813113
0.00156749
0.00250263
0.00205569
0.00391052
0.11639
0.00395693
0.00303324
0.000276009
0.00297505
0.027367
0.00241373
0.000467448
0.00307694
0.00318912
0.0023219
0.00407731
0.117504
0.00185079
0.00136352
0.116907
0.116937
0.00114574
0.00236302
0.100836
0.0113531
0.0128024
0.116073
0.0992432
0.0594382
5.8655e-05
0.00314309
2.11085e-05
0.110771
0.000329384
0.0035418
0.00405399
0.00600913
0.00364653
0.0430494
0.00175466
0.00444372
0.117266
0.00375556
0.0979868
0.00295886
0.0986996
0.09672
0.0017161
0.00102958
0.000676048
0.00755647
0.000264201
0.000357587
0.000641205
0.000544165
0.00402908
0.0118704
0.000505752
0.000499028
0.00421518
0.00229388
8.66846e-05
0.00360928
0.00231602
0.00129514
0.0817477
0.113867
0.00273843
0.00399105
0.065233
0.11712
0.00438822
0.0820671
0.00230025
0.00195336
0.0983628
0.116922
0.12078
0.000600136
0.0128635
0.109491
0.00375046
0.0919483
0.0799628
0.00262933
0.000428417
0.000567349
0.000904013
0.00256049
0.00214131
0.00010381
0.000162167
0.115961
0.116681
0.00193118
0.114853
0.00338991
0.00113355
0.0183778
0.00391838
0.00328998
0.116922
0.00234632
0.00430956
0.000832195
0.000600908
0.114607
0.00184487
0.112629
0.116953
0.000977114
0.000374483
0.000236447
0.00223419
0.101199
0.000814535
0.00224211
0.14379
3.17746e-05
0.109252
0.00116255
0.105997
0.00250902
0.0270787
0.0108114
0.00144597
0.00079795
0.00172623
0.00414342
0.117037
0.00369794
0.000800341
0.00645176
0.00131769
0.0241943
0.00137398
0.00210606
0.000320512
0.000197729
0.117308
0.104863
0.00250469
0.00223138
0.00175342
0.00163716
0.0021775
0.00280139
0.0925113
0.000160827
0.00271534
0.0846091
0.00153352
0.115099
0.00220559
0.00181139
0.00414104
0.117062
0.00217066
0.000608644
0.000750128
8.25509e-05
0.00269305
0.00147423
0.00183855
0.00267621
0.000647035
0.00332281
0.000438432
0.000765796
0.00214992
0.00348007
0.000816779
0.00124671
0.00328968
0.000156197
0.000172975
0.00219642
0.000812976
0.000493947
0.116827
0.000549406
0.00103799
0.116596
0.00465163
0.00340974
0.11496
0.116531
0.00268968
0.00469365
0.0563757
0.117063
0.00371302
0.116854
0.118963
0.00257567
0.115595
4.65681e-05
0.00111912
5.9469e-05
0.000207835
0.0022692
0.0226058
0.00257632
0.00179862
0.002695
0.117585
0.00204108
8.39356e-05
0.00151246
0.000860254
0.000869268
3.25538e-05
0.00169538
0.00109797
0.000173421
0.00624056
0.00011703
0.113642
0.114405
0.00673298
0.000132684
0.106686
0.106096
0.0806096
0.116442
0.00160267
0.00251476
0.00407453
0.0177417
0.000307602
0.00692718
0.00422183
3.85494e-05
0.00100296
0.00131663
0.000348587
0.00147524
0.000293662
0.00182847
0.11679
0.00101351
0.000798738
0.000618615
0.0882732
0.00382271
0.00169433
0.113635
0.00131371
0.00121395
0.000186083
0.000750958
0.00166005
0.0199197
0.00155601
0.116988
0.115725
0.116839
0.000136888
0.0388173
9.50442e-05
7.95571e-05
0.00204886
0.00302254
0.0012829
0.00150999
0.00328834
0.000970617
0.115366
0.000236671
0.00334484
0.000141816
0.115994
0.000620176
0.00399321
0.000117799
0.024341
0.00149304
0.00079534
0.117066
0.115325
2.68089e-05
0.116881
0.000163071
0.000773079
0.000773427
0.00158067
0.00295323
0.000906323
0.00113718
0.116794
0.000651163
0.00414345
0.0188536
0.0029212
0.000188755
0.00111706
0.0147455
0.00153663
0.115031
0.00258237
0.00388116
0.11222
0.000777708
0.00176292
0.00137429
0.00381659
0.112213
0.111723
0.000123052
0.0840487
0.000109948
0.000519407
0.11696
0.0036993
0.00400339
0.00295911
0.0033451
0.00088284
0.00258265
0.105258
0.0327635
0.000492479
0.00214578
0.0014262
0.00165866
0.035119
0.00115815
0.125478
0.00619311
0.00247279
0.00192048
0.000305767
2.99379e-05
0.00080937
7.85887e-05
0.00310339
0.0992254
0.000683938
0.00274076
0.113997
0.00044529
0.0990847
0.116205
0.110779
0.0014886
0.00107452
0.00170851
0.00297862
0.0900518
0.0032049
0.000524587
0.00147796
0.00231819
0.0600473
0.00195019
0.00243588
0.00113604
0.117083
0.101527
0.00350529
0.001921
0.00146266
0.000326264
2.53968e-05
0.0257092
0.000156166
2.39209e-05
0.000682029
0.00172856
0.00113265
0.00378909
0.0237764
0.0032885
0.00161488
0.00173048
0.00325342
0.000158057
0.00165828
0.0117302
0.00435378
0.000853539
0.000395174
0.0176663
0.00381816
0.000148317
0.00476701
0.116723
0.0996564
0.00263837
0.0890639
0.116694
0.00201527
6.56431e-05
0.0999017
0.00160183
0.000385885
0.000109014
0.000335216
0.112325
0.0980609
0.101567
0.00210287
0.000819566
0.000476054
0.00120544
0.00153395
0.000155653
0.00841549
0.00799531
0.072711
0.113121
0.003642
0.000636985
3.11187e-05
0.104717
0.00127014
0.00255638
0.000112426
0.000315456
0.00271721
0.0698417
0.0792445
0.00235715
0.00266899
0.0370819
0.00380512
0.00145509
0.116623
0.000110954
0.00220652
0.100725
0.116545
0.00350627
0.100233
0.00387385
0.0966683
9.91269e-05
0.000137183
0.000605152
0.00104026
0.000665218
0.117353
0.000997656
3.83398e-05
0.00115688
0.0028005
0.00083818
9.2137e-05
0.00364216
0.00175425
0.00257887
0.000643408
0.112228
0.00229437
0.000624235
0.000798156
0.0031913
6.35448e-05
0.112713
0.000279456
0.00275541
2.80435e-05
0.00207348
0.026483
4.58162e-05
0.109904
0.105004
0.11663
4.23692e-05
0.00109247
0.000412275
0.00282653
0.0014202
0.000874275
0.0019328
0.116631
7.6641e-05
0.00371675
0.00237317
0.00322883
0.00138722
0.00133565
0.0962056
0.00104876
0.00060486
0.000143719
0.0025501
0.000795722
0.00175589
0.00061654
0.000117178
0.00129091
0.00188141
0.00390495
0.000787932
0.116291
0.00363666
0.000270344
0.000353381
0.0015133
0.0935917
0.0743314
0.114835
0.00444121
0.0593015
0.00104424
0.00227482
0.0911617
0.00191644
0.116668
0.00238837
0.000921891
0.00146502
0.00123276
0.114316
0.000732835
0.00146323
0.115916
0.116896
0.00378312
0.117047
0.000179505
0.114834
0.00385238
0.000158155
0.00251948
0.00536719
0.000969887
0.0568395
0.115823
0.000856764
0.0108201
0.0012139
0.116697
0.00119291
0.000803897
0.0371984
0.0291991
0.0834804
0.000184762
0.116208
0.000149667
0.0026297
0.000938571
5.56018e-05
0.00031507
0.000317171
0.00815696
0.0018512
0.00320921
0.115926
0.00321128
0.110382
0.0782639
0.0722892
0.00667851
0.0472267
0.00594683
0.00206713
6.6627e-05
0.000548318
0.000928917
0.101702
0.00147881
3.22529e-05
0.0551701
0.117562
0.00707661
0.0014494
0.00422861
0.00104751
0.00085141
0.00207262
0.000206217
0.00140146
0.000788592
0.117269
0.00380917
0.0027314
0.00112864
5.46161e-05
0.00110369
0.000105894
0.00266176
0.113729
5.71486e-05
0.00115266
0.00338695
0.104611
0.000627236
4.79123e-05
0.000140887
0.00463159
0.0061358
0.00143752
0.00306077
0.00106786
0.00129285
0.000375912
0.00103665
0.00819665
0.00376931
0.00256456
0.00465386
0.00199682
0.115772
0.0040343
0.00154657
0.00652633
0.0354351
0.116939
0.00418129
0.00132571
0.00198633
0.000187364
0.000959594
0.142141
0.000608079
0.0016164
0.109574
0.000775559
0.000673547
0.000591126
0.0691111
0.11574
0.116121
0.114947
0.116201
0.000742279
0.0911094
0.00248805
0.00203314
0.00792851
0.000135296
0.0100166
0.0267785
0.00807329
0.112738
0.00360487
0.000258184
0.00467411
0.00158285
0.00267061
0.00233965
0.116543
0.00165311
0.00191754
0.000277663
0.00353704
0.00428123
0.00106254
0.113851
0.00250885
0.0879511
0.0016814
8.39773e-05
0.114914
0.000155443
0.113357
0.000514592
0.000809728
0.000399313
0.000738235
0.00172459
0.000242625
0.00264942
0.000638371
0.00346208
0.000476473
0.00049733
0.00137869
0.00107348
1.80068e-05
0.113969
0.000978122
0.00135644
0.111629
0.000121435
0.000712419
0.0012198
0.00133295
0.10218
0.00752308
0.00169324
0.00399026
0.117707
0.0248379
0.000449104
0.00179668
0.00652424
0.0044899
5.44006e-05
0.000458588
0.000329693
0.0015869
0.00133949
0.0149238
0.000118779
0.000721996
0.00147536
0.000709699
0.104186
0.00110618
0.0773126
0.00136372
0.11671
0.000108679
0.00366044
0.0827824
0.00379314
5.62084e-05
0.101938
0.111022
0.000989291
0.0651973
0.00394301
0.00373454
0.116898
0.00180866
0.0189521
0.000248686
0.00305225
0.000192942
1.69678e-05
0.000923604
0.00327952
0.000637758
0.000526167
0.116869
0.112691
0.00267671
0.00299084
0.077762
0.00112539
0.205571
0.000127469
0.00256521
0.00160904
0.000327931
0.117205
0.000402718
0.021733
0.00109209
0.00175537
0.00264636