/*--------------------------------*- C++ -*----------------------------------*\
  =========                 |
  \\      /  F ield         | OpenFOAM: The Open Source CFD Toolbox
   \\    /   O peration     | Website:  https://openfoam.org
    \\  /    A nd           | Version:  8
     \\/     M anipulation  |
\*---------------------------------------------------------------------------*/
FoamFile
{
    version     2.0;
    format      ascii;
    class       volScalarField;
    location    "6e-05";
    object      T;
}
// * * * * * * * * * * * * * * * * * * * * * * * * * * * * * * * * * * * * * //

dimensions      [0 0 0 1 0 0 0];

internalField   nonuniform List<scalar> 
23640
(
88.1086
76.1869
250.537
286.264
83.4966
171.796
69.6841
113.913
108.611
135.966
271.965
81.9418
79.2115
79.5944
193.335
171.95
78.7034
246.812
262.188
101.216
269.026
191.721
268.65
268.953
90.7406
76.436
156.618
108.27
69.7534
93.4643
74.5239
299.895
269.121
87.9822
104.742
190.177
79.0413
70.2429
137.79
273.753
83.065
109.236
83.2937
120.843
291.828
172.219
82.6086
77.7679
133.922
118.479
299.685
249.164
186.33
69.0359
286.451
219.805
137.089
84.4998
59.8519
293.09
73.6914
169.577
277.863
251.535
62.2703
251.203
175.079
87.9419
241.97
84.5806
275.985
87.7457
262.123
71.836
175.05
299.816
217.415
78.4272
262.608
277.082
180.043
128.454
63.5039
63.3879
61.7584
174.892
248.712
272.665
264.714
190.611
63.5919
87.5846
131.775
262.524
248.011
89.2533
252.886
220.529
110.812
136.738
119.507
69.2539
269.523
76.0248
98.1151
70.9348
282.51
65.4789
82.0381
106.17
71.41
262.301
91.0658
82.9033
163.187
64.5812
196.451
70.7032
87.8031
94.223
270.003
298.432
224.349
299.114
130.509
271.863
299.765
140.435
166.237
81.6827
120.536
116.602
80.0552
141.169
73.1485
272.663
271.027
89.1671
271.638
255.323
108.066
141.839
261.372
272.041
261.672
95.9857
273.227
273.776
64.0054
248.39
124.989
197.626
65.6028
280.648
114.034
70.3324
69.7596
88.4217
166.646
154.962
199.02
173.3
190.283
160.008
61.8281
59.62
278.748
160.489
282.797
115.769
77.4687
159.624
169.407
81.3716
279.489
279.519
81.563
161.033
277.269
87.9132
291.643
207.732
89.2009
101.767
70.7587
214.338
127.182
120.001
293.247
103.861
115.125
272.275
297.946
65.155
69.8259
273.342
99.1722
172.258
185.784
148.211
267.25
114.736
73.1681
108.774
264.521
61.1092
189.031
268.744
147.45
278.927
81.7074
86.5307
91.0584
61.1665
203.578
99.8013
82.4174
100.59
141.14
94.5919
89.8076
271.868
267.353
82.1617
268.53
89.8806
76.3326
298.891
98.5158
63.5899
87.2315
67.1964
96.1545
85.3257
88.1574
128.424
275.777
99.9652
64.006
182.267
121.398
167.39
83.2013
108.658
285.045
70.1173
111.564
208.858
277.678
271.08
293.567
76.5726
82.3178
279.642
59.8312
273.799
188.112
66.9519
284.571
283.957
289.886
72.4583
116.793
82.5571
73.6016
83.3991
144.137
116.409
59.899
245.674
118.022
64.0559
270.535
293.065
139.541
89.092
70.914
298.493
251.93
80.9372
272.182
81.1468
212.375
272.716
130.722
171.085
127.974
195.614
70.683
272.545
95.8771
73.2378
97.8796
147.078
271.45
100.699
80.3134
72.2318
79.45
92.7304
162.619
252.529
298.795
90.7674
270.421
63.0769
119.829
157.189
288.412
261.701
66.5363
134.033
279.568
262.263
266.862
142.337
116.83
239.919
249.12
152.434
103.108
88.5603
105.386
107.21
72.6608
131.928
295.742
102.827
114.331
299.857
213.397
110.498
102.181
115.433
103.848
91.5356
194.522
114.816
103.433
79.2336
189.761
257.188
113.6
298.634
272.325
245.107
161.536
81.9017
88.9146
96.5027
283.727
129.699
66.2422
70.4327
104.263
61.1114
120.019
71.4296
277.8
272.041
125.892
269.985
255
93.1145
98.1449
67.476
62.6162
120.113
262.627
90.7847
150.734
260.37
66.0617
267.151
128.627
66.2921
297.064
156.186
102.794
144.82
261.772
260.287
99.481
256.745
103.91
73.0231
143.433
58.7253
273.362
65.1723
242.1
185.445
216.112
176.327
122.405
270.76
298.256
75.8357
81.304
157.749
125.84
278.713
149.909
63.7316
79.6859
76.3205
287.435
70.0159
162.358
158.3
175.575
277.562
281.253
110.752
273.308
81.9901
168.431
83.163
119.805
94.2389
284.293
242.951
78.7277
185.567
132.857
63.4642
298.913
227.518
270.105
145.943
76.9527
293.576
278.516
268.214
128.234
272.431
152.226
202.258
173.398
296.575
116.266
277.835
219.337
139.761
197.276
144.673
160.706
123.017
268.74
119.69
299.999
169.029
279.895
173.825
237.538
73.048
68.3584
119.146
285.038
143.477
119.402
126.808
90.373
300
174.138
94.1415
167.111
231.763
119.577
116.319
118.292
93.2881
290.145
124.854
116.708
173.172
81.4462
299.97
132.255
299.28
131.861
76.6464
101.699
137.754
190.771
145.438
268.713
101.434
75.9121
75.0437
143.974
299.161
78.2594
270.648
100.19
76.2798
128.304
210.666
152.814
73.7672
88.7776
275.77
63.617
94.0955
92.2421
59.7803
121.101
66.2412
73.1057
80.0512
173.808
101.156
159.432
169.911
267.726
84.4805
89.9624
69.5765
108.489
273.6
181.979
237.354
300
212.345
73.1278
91.3958
266.677
116.324
262.063
59.5389
77.521
268.579
137.042
211.203
210.48
83.8416
177.986
115.457
65.7478
110.029
170.922
92.2949
101.645
78.6662
74.5986
81.7019
207.015
262.893
91.5874
91.3524
179.546
85.5466
211.812
99.2001
170.78
85.768
92.3502
168.948
270.937
279.503
165.959
272.837
93.3698
149.514
257.408
268.206
159.068
265.76
167.835
154.237
299.998
82.3591
100.122
67.8911
70.3786
262.492
219.755
171.15
107.574
80.8469
293.764
108.299
71.3779
116.959
262.646
265.757
159.859
107.587
75.7838
265.905
277.809
94.5099
82.6348
108.211
59.7317
249.935
99.0933
140.632
93.9045
120.828
273.21
268.984
285.297
136.071
90.3176
183.626
130.222
107.416
85.4469
266.462
92.7601
125.756
83.0093
94.7053
173.034
126.628
210.4
99.6993
73.9808
299.12
264.284
81.1702
96.1843
278.002
82.4111
247.464
75.6274
267.564
89.4283
219.289
65.4151
126.458
128.853
88.4063
83.6493
288.454
89.2106
76.4076
76.8321
202.188
108.113
230.787
272.996
79.0502
201.586
108.2
267.285
139.324
72.5678
82.0966
138.984
298.705
261.91
63.4199
99.6711
295.145
153.217
268.918
81.2297
171.603
101.2
165.423
64.5468
134.747
211.017
211.332
116.547
298.404
263.458
145.571
298.727
104.589
76.3745
161.612
253.195
75.1912
84.4709
87.754
74.2818
275.932
294.73
110.678
92.6511
119.009
86.8936
70.7776
287.516
86.71
178.5
298.592
69.1076
202.64
235.726
74.0773
235.474
77.683
193.358
104.696
271.431
90.1337
299.985
252.318
91.8747
269.922
80.2401
101.782
273.623
125.127
274.523
119.762
262.955
272.479
145.026
85.9131
194.909
194.723
178.489
68.7877
267.955
231.221
108.353
171.092
116.842
80.3823
111.633
273.577
76.3824
69.9798
94.1891
284.03
105.11
72.0168
275.898
272.484
70.9244
88.7639
240.606
82.3781
276.206
105.993
163.464
86.3131
276.375
143.74
71.8683
220.768
71.9123
254.647
66.0353
87.8765
219.444
61.8176
98.2723
84.9548
91.1979
299.965
144.135
66.0327
247.238
274.897
70.3658
59.6811
233.472
103.892
286.39
229.895
273.528
93.6138
258.013
110.943
187.72
98.1547
168.392
91.1798
266.12
80.9675
281.063
109.605
239.759
183.765
111.532
299.303
204.843
178.323
225.555
299.192
138.221
64.8964
101.661
91.4764
107.197
181.237
260.041
89.9232
87.8618
271.079
201.823
276.772
86.4632
273.838
109.573
145.93
98.2096
71.4211
117.246
294.479
69.0504
262.727
274.458
86.95
166.032
268.173
84.4355
287.6
178.844
117.882
67.7553
261.723
197.261
81.9792
110.378
227.618
264.856
109.587
239.791
273.931
121.67
72.6527
115.816
233.806
85.8872
142.957
77.8295
252.905
90.8385
103.854
165.32
199.826
179.107
82.6467
253.054
121.641
270.839
102.294
70.5391
70.4424
280.867
86.3302
274.711
86.0438
89.9741
79.5817
172.887
112.869
260.84
299.998
127.149
120.783
108.93
121.835
121.742
89.7646
91.9137
282.256
169.969
79.0165
270.635
72.2523
294.531
215.136
137.07
274.679
277.528
270.762
299.996
70.1611
293.55
187.14
80.2921
65.2736
109.473
85.7899
252.688
75.4059
144.995
130.403
276.972
120.665
287.124
122.931
178.967
140.07
81.8598
210.656
274.452
112.025
211.43
166.305
114.969
267.935
266.724
174.546
82.0549
75.3154
235.725
221.773
123.159
185.936
111.946
69.5397
147.397
65.8981
134.562
113.369
296.139
89.5269
178.723
282.017
265.346
274.97
192.697
257.767
93.9985
273.708
62.188
198.72
70.2983
109.729
161.833
299.683
252.497
262.341
262.741
93.9514
290.654
130.543
201.351
86.7047
107.437
276.556
190.959
63.297
163.787
185.716
275.107
135.062
274.521
237.627
66.9781
72.2747
81.6907
271.771
69.7948
207.567
68.2698
86.8054
281.201
156.866
73.2832
63.6273
109.465
62.9396
264.591
105.695
81.1405
179.403
75.0192
295.024
60.0084
75.5262
269.149
89.3659
272.155
106.976
206.793
80.3782
87.6778
199.979
99.9351
276.361
211.469
66.6156
82.6207
75.2061
76.4963
262.505
121.591
83.9055
272.177
262.022
103.089
286.282
98.2619
87.8919
274.84
106.297
295.072
59.8458
104.87
185.206
137.56
104.191
240.646
104.34
207.011
166.568
135.039
65.8278
196.547
227.421
72.2623
92.9381
73.5595
69.1355
270.764
152.003
136.713
68.5497
93.329
234.11
263.11
298.126
71.7059
271.664
112.059
86.1362
69.244
284.952
258.531
75.6668
258.429
111.46
123.079
94.5854
78.4559
96.3278
82.0672
189.523
100.916
78.5269
104.607
274.445
266.262
68.1552
80.8199
162.611
109.204
173.582
294.955
112.629
74.4497
81.6902
293.085
271.65
262.788
91.6698
246.773
100.229
228.918
98.1062
153.272
267.801
94.3502
278.073
76.7478
122.539
98.0283
149.75
210.196
195.924
278.334
66.9634
139.263
192.528
182.149
103.982
138.365
74.1352
68.1647
271.391
80.2018
177.458
103.005
195.075
226.291
197.676
119.667
263.641
278.534
83.3063
106.203
95.4352
87.4185
127.126
163.294
87.7939
82.6047
73.38
226.966
72.877
104.938
125.684
151.238
283.2
73.0931
102.827
269.731
95.3016
105.416
178.976
260.654
122.454
75.1176
75.2689
102.346
95.1341
153.931
217.361
196.829
119.066
279.106
79.3377
106.692
68.1411
75.3855
299.004
92.2729
93.4411
92.2309
292.371
263.248
188.608
188.968
280.031
299.997
64.2366
88.8639
105.177
204.299
72.1311
252.355
197.866
69.1705
272.432
130.864
145.796
283.013
288.822
76.6998
188.373
151.641
72.2845
91.72
132.94
89.3861
68.6965
206.281
264.657
119.99
270.297
87.3993
167.195
251.09
74.4537
124.947
111.658
258.45
264.403
99.7865
178.433
117.26
174.906
112.872
211.578
149.165
131.531
91.7046
263.65
110.783
88.6166
88.6218
262.006
265.048
66.9396
78.6473
266.315
183.94
60.5443
270.034
88.7323
255.8
90.9043
171.475
106.377
89.5644
73.6624
72.8479
299.999
141.328
273.315
80.6192
117.437
273.494
86.033
65.3075
119.56
155.182
271.59
201.157
272.622
59.9139
85.3095
103.662
84.1932
105.388
76.0228
75.4299
219.907
83.5425
137.398
76.9281
158.481
92.0552
242.73
271.462
88.3957
276.714
219.249
290.955
111.094
218.758
72.3308
259.029
93.4737
267.983
72.7752
78.9842
69.8444
107.708
97.4672
81.2642
107.989
171.625
282.967
199.836
87.0288
96.0204
248.242
138.271
202.684
299.747
209.58
103.028
64.8562
168.411
127.084
70.8772
118.783
73.0345
118.192
273.756
134.211
256.305
180.117
121.924
92.4247
79.0843
184.142
68.3028
95.8435
276.231
133.4
226.215
258.971
97.3946
274.801
198.128
273.564
106.201
89.5654
205.712
244.77
82.8829
270.413
222.277
83.0594
77.1024
76.755
244.374
111.826
81.3937
206.197
141.04
92.1857
199.669
136.119
261.633
63.9917
67.9711
99.4634
73.451
71.465
161.141
73.8203
72.9719
91.8186
300
122.325
146.466
103.226
261.697
271.518
274.384
96.9125
148.516
119.062
267.167
69.0966
81.891
73.7836
99.5253
79.0244
73.0596
108.597
64.1397
142.868
70.2853
273.735
180.858
109.816
88.8743
75.9457
132.123
82.193
282.099
97.0541
160.627
75.952
277.222
277.92
63.3697
65.0626
86.4647
122.652
76.5509
103.445
114.403
270.549
130.3
279.517
195.627
89.1358
72.2268
107.943
93.7669
299.911
276.062
204.577
148.068
119.998
218.198
262.221
79.1461
72.5105
89.8183
135.361
299.959
91.8247
284.414
72.1446
74.1394
70.6925
110.069
81.7851
116.224
180.191
261.865
276.263
186.66
78.3693
104.992
126.742
71.4666
167.848
123.938
161.836
99.6834
148.041
274.588
157.465
79.5206
67.3301
182.296
153.415
148.703
75.4002
112.081
157.897
96.8656
178.05
113.241
74.9392
192.758
266.486
251.279
265.289
64.7664
273.622
247.436
206.247
110.256
64.124
197.711
81.345
273.975
83.1348
67.9465
72.8785
109.14
88.1842
272.467
94.7469
145.475
279.419
154.007
188.146
185.601
101.196
167.285
111.137
80.3169
85.2062
72.4136
188.594
73.1928
178.414
219.524
68.599
265.53
60.5913
138.624
84.6689
138.669
184.877
123.917
96.3366
94.627
89.2937
267.689
234.924
79.9301
293.541
79.6925
93.667
110.255
120.884
240.825
216.074
291.478
293.721
76.1538
236.887
300
77.7074
88.6541
133.299
276.313
86.1273
140.552
106.679
110.379
79.0621
221.264
115.439
290.18
261.113
77.0296
245.009
256.866
121.108
110.602
255.197
274.555
277.408
205.549
72.4124
294.068
162.33
142.477
77.0228
252.93
270.623
68.9137
73.5758
72.3543
76.0874
250.985
73.8912
86.4233
110.478
277.575
144.346
81.6396
279.551
292.65
279.435
294.252
76.9938
110.816
265.911
270.222
90.8537
118.631
70.5238
90.4959
253.5
205.534
145.487
263.277
70.0002
285.114
289.293
279.61
299.998
71.3129
67.1359
99.8383
92.6383
205.16
197.011
70.5777
79.6611
129.009
104.647
85.9852
143.902
81.1801
278.313
173.408
79.0019
95.9547
64.6071
123.336
273.846
67.3448
78.9178
295.521
278.749
182.829
83.1369
89.0711
124.445
76.6481
79.624
108.765
219.991
272.862
299.713
284.474
161.863
223.134
203.064
296.621
184.975
123.475
102.981
263.222
85.0616
274.496
259.317
136.552
167.407
71.2387
199.79
267.075
102.733
92.0364
299.997
75.7055
151.357
137.417
286.776
95.4142
88.0471
259.845
141.308
166.193
60.3143
265.548
113.486
283.377
102.183
99.5923
191.477
155.238
249.483
211.341
89.9915
130.793
130.393
90.7776
275.708
130.896
250.062
108.756
141.25
70.2079
106.749
151.172
62.3293
141.344
298.357
248.176
161.913
276.144
117.803
150.049
78.5872
210.409
60.1281
201.586
278.886
278.277
74.7931
112.351
277.895
84.6968
103.203
90.8615
86.5093
114.51
72.8733
69.1913
103.428
267.112
113.189
133.595
275.219
128.026
152.753
115.303
84.9063
111.914
299.454
121.05
281.434
298.096
109.499
78.8813
111.862
281.661
77.8632
85.7302
167.135
99.8017
278.212
66.9813
121.808
213.522
282.011
276.224
157.991
273.062
68.4112
82.9425
277.506
255.797
103.084
298.386
72.3168
106.456
89.3
158.359
117.078
104.134
261.097
82.2364
298.645
73.4135
113.892
86.2604
77.5725
300
300
83.9909
259.902
88.6587
80.4198
277.123
86.9694
139.879
92.4417
108.585
67.439
108.711
87.2772
263.672
89.2964
67.7918
126.065
96.4102
78.5543
214.666
61.7438
275.79
111.949
297.046
170.712
107.68
274.003
276.16
266.439
110.488
267.918
264.845
98.819
116.468
299.998
274.259
158.124
79.4333
267.669
269.872
91.8631
278.396
269.721
283.239
276.484
85.6283
73.9193
205.103
97.9891
168.872
152.159
266.989
219.649
269.385
67.5936
76.3927
177.649
257.117
272.586
118.859
77.0189
270.955
77.795
219.024
123.463
116.718
298.891
123.682
275.186
152.029
117.457
236.53
123.534
176.412
89.1026
299.971
99.8157
216.927
83.9857
78.7237
201.635
286.866
284.09
59.8088
84.2054
250.459
154.951
121.13
274.681
237.161
242.057
110.602
63.3194
264.412
191.408
275.941
94.0161
287.548
255.802
78.5709
203.889
71.0272
138.199
277.452
111.151
245.257
184.788
79.755
161.722
156.257
75.8522
158.796
90.1415
118.703
205.539
267.847
153.325
174.571
274.317
87.7079
99.5293
260.447
127.092
117.244
77.5497
88.2075
96.9612
71.8013
65.2878
130.999
296.796
178.985
63.8138
116.639
79.5462
125.999
92.637
238.256
171.588
98.1188
76.6198
64.0287
295.528
164.629
87.275
89.1038
260.505
67.791
275.356
276.718
64.1389
273.741
281.859
71.8258
72.6679
272.525
119.875
85.1899
63.9049
60.2168
142.787
73.7355
105.068
175.184
61.1098
65.2514
62.8994
95.0402
143.602
111.172
66.1445
253.103
72.4787
299.999
83.7659
68.2777
87.7142
85.5645
266
74.9156
108.953
71.9898
102.779
127.943
68.1834
273.886
93.0377
91.3052
129.211
112.981
181.988
92.0234
95.4331
198.133
171.767
88.6713
265.515
116.721
145.001
279.205
84.9083
89.8536
82.029
97.0086
63.429
83.1734
87.7078
62.2396
68.0955
274.641
235.428
299.243
97.7536
245.43
279.631
91.1493
298.862
128.912
85.0196
167.7
157.007
74.5152
265.828
279.05
91.8845
78.3636
85.3367
75.0724
288.199
261.538
140.425
84.3929
259.005
100.739
68.1255
267.85
83.4191
135.866
101.408
213.349
130.389
269.18
94.129
121.596
107.78
90.0409
237.964
103.53
274.98
293.392
267.668
271.834
91.3634
80.1602
91.9944
274.065
222.292
200.884
89.6159
75.6989
172.454
101.75
77.9394
91.2888
252.679
160.328
145.419
260.621
299.966
161.085
149.901
272.806
279.29
261.359
76.6204
288.627
149.621
131.036
253.288
281.123
67.712
64.1351
65.174
190.463
91.0793
102.803
115.232
72.1518
200.611
269.538
191.555
136.101
161.616
69.2109
216.667
75.4886
123.045
277.29
125.129
196.362
99.4096
202.333
106.45
114.252
209.931
266.097
71.8318
98.0945
69.1033
68.3596
162.36
151.505
269.416
257.029
299.992
83.9909
275.057
76.2629
120.177
64.0958
71.8803
82.9438
61.1454
238.032
149.393
246.86
89.5543
108.886
102.782
121.44
276.642
150.019
144.146
90.3252
185.688
192.723
217.721
63.3732
172.05
118.623
96.4726
195.082
277.885
102.591
89.5171
276.224
281.471
80.8136
108.352
264.179
149.468
151.202
276.091
262.302
225.139
97.6565
109.178
182.841
270.909
73.0293
147.357
117.647
124.814
110.857
207.341
98.7344
122.298
277.05
111.479
261.314
103.3
261.921
260.127
192.323
77.3391
69.4527
132.503
71.5572
82.4814
79.1961
65.5911
119.345
160.672
72.8538
75.2018
179.865
104.379
81.7409
232.138
130.491
89.7224
247.155
273.291
101.104
141.636
231.664
276.722
127.539
248.202
96.6664
94.2529
261.54
280.497
299.778
67.2628
152.445
269.363
117.361
256.003
245.992
105.93
74.6685
72.9368
87.9666
207.824
102.879
74.6476
63.3199
287.164
283.299
107.533
274.577
119.675
84.5685
164.999
206.267
105.58
279.765
105.825
124.374
76.5049
67.3096
298.665
99.9746
272.025
276.236
76.7472
78.5256
86.9832
104.701
263.571
78.2249
104.481
299.982
175.5
269.193
85.1282
266.918
182.569
184.258
152.304
84.7749
75.9193
91.3216
170.994
277.601
137.653
76.097
134.656
84.3823
176.778
90.3253
98.3444
109.204
68.9505
279.184
266.266
98.3937
104.101
89.8462
88.6275
104.796
193.369
256.429
69.9287
107.743
249.775
95.3186
298.296
95.8548
98.2607
173.557
281.775
100.268
67.2897
73.7855
76.484
110.729
103.025
90.9579
100.302
79.8305
115.394
69.8635
74.5315
166.989
191.095
76.0974
81.4928
156.544
75.0922
68.9259
95.7112
86.0709
80.3226
276.145
67.7814
83.0414
283.583
117.018
173.06
274.783
285.455
110.758
149.231
224.44
281.596
215.085
276.086
298.461
109.94
290.693
89.1477
79.9578
83.1945
85.7732
104.866
177.595
199.106
98.306
101.335
282.467
104.956
59.6262
92.3975
80.8032
73.9586
194.793
96.0762
87.1152
68.6119
140.846
61.369
272.724
273.881
159.576
63.9183
268.101
269.063
246.569
275.586
88.0209
112.146
147.056
165.646
73.4303
129.006
162.01
188.241
88.759
89.3757
66.6502
92.3287
76.0754
90.3662
278.014
77.0217
73.3808
67.8367
257.952
154.136
89.1667
297.068
82.9333
88.2863
66.5327
71.7819
154.182
174.226
92.7997
279.557
295.156
278.197
66.68
203.259
75.1219
76.5468
104.079
179.515
88.8303
88.1568
186.712
83.6655
274.548
85.07
115.632
66.9094
296.493
67.7455
136.194
70.0184
176.326
86.2218
72.6848
279.619
294.821
241.075
279.143
65.8883
72.0049
74.9896
89.3668
151.626
75.3547
90.3638
276.935
68.5119
151.456
176.978
127.127
116.925
79.8658
171.661
86.7781
274.855
108.812
197.165
271.472
74.8043
99.6196
90.025
115.634
271.514
271.649
67.315
249.739
75.5064
64.4178
276.318
109.846
138.482
191.001
175.827
79.3319
105.137
268.187
196.406
72.1084
166.771
90.979
89.5444
199.604
84.9111
299.772
124.915
223.623
103.331
71.2072
218.686
76.5374
82.5085
202.387
262.256
72.4737
100.927
294.997
71.586
261.93
285.41
270.632
93.9969
81.6618
96.994
205.721
254.516
181.423
72.3249
92.0208
131.004
228.176
99.604
108.171
84.5439
279.834
263.754
187.176
102.75
85.4975
81.903
186.138
179.152
66.6215
193.321
73.0489
136.648
105.824
114.706
175.082
115.051
88.3837
167.329
117.123
75.3053
97.0903
154.827
128.332
74.088
77.8551
162.958
166.212
65.6001
164.128
296.517
262.695
110.003
255.463
276.949
93.0179
65.972
262.766
190.877
78.614
70.6432
72.6076
271.703
260.794
264.554
104.876
76.6186
74.93
81.4894
93.1468
74.474
135.325
140.736
239.324
272.829
121.925
72.3716
190.124
265.872
82.4619
109.295
70.8951
72.7358
112.613
236.427
245.22
124.338
120.563
201.369
152.731
175.468
277.466
71.8828
155.024
263.207
285.532
161.924
263.025
203.143
259.826
60.4794
67.7578
69.6859
77.7358
69.1385
279.837
78.1189
143.007
85.2056
109.385
73.1018
61.3801
134.623
89.8986
101.409
107.097
271.44
185.694
71.7591
72.6181
186.089
82.1833
272.459
76.2699
103.945
185.567
101.962
187.175
70.766
270.117
266.399
283.375
102.868
84.6042
79.7155
217.426
90.4377
80.4119
101.455
283.271
58.8506
126.873
117.551
115.257
91.5299
118.392
259.246
78.2223
79.8846
65.2683
99.3088
83.8242
119.694
84.2611
73.193
89.8194
91.757
203.5
77.3502
285.176
215.621
107.303
79.2831
97.3682
258.267
240.97
274.497
126.778
227.346
88.9089
106.79
255.386
101.087
277.993
209.774
78.9232
161.171
81.8635
273.464
72.9067
85.2595
287.017
280.081
158.486
277.496
66.2141
274.507
145.607
82.9128
156.548
153.788
88.1267
222.871
293.357
73.3858
144.781
83.3798
283.694
90.2868
76.0679
200.608
187.41
248.822
133.597
286.72
63.9187
105.695
79.8704
84.186
73.9954
74.0545
146.743
91.236
115.513
288.307
117.858
270.437
244.329
238.674
128.689
211.946
138.964
103.852
80.5556
69.5294
75.7639
263.748
92.3885
180.553
220.208
281.904
128.965
91.2746
147.54
78.1295
77.5542
101.623
69.8888
89.1087
72.5098
282.216
121.42
101.895
83.9923
149.045
79.0008
71.2465
112.489
272.842
66.175
85.4797
182.631
265.781
70.6807
69.01
62.685
116.33
130.515
92.2965
127.278
83.8642
88.1209
72.6301
83.0366
163.466
203.743
109.224
126.525
94.3129
276.007
124.57
94.1571
135.527
194.685
278.01
126.432
89.1213
94.9505
72.3969
111.399
300
67.4138
88.1264
269.659
76.2337
71.2382
66.9784
236.273
275.068
288.072
274.756
299.588
83.9912
255.504
108.295
104.736
157.837
62.882
150.01
188.254
134.536
272.646
185.002
81.4028
165.728
95.918
120.314
106.104
276.904
148.516
92.365
69.5824
114.403
124.8
81.8397
272.867
105.227
257.244
97.4223
79.348
298.833
68.4727
272.654
100.65
72.1099
75.0025
83.5522
99.6323
72.7017
100.384
71.0031
166.859
72.115
68.2905
89.712
80.8587
185.929
273.004
76.5451
89.8531
271.204
67.0297
70.403
86.4237
89.5526
264.069
147.415
99.8008
188.967
278.678
190.73
95.9693
90.8532
126.203
153.022
124.899
62.43
92.4797
89.7278
93.0411
167.211
144.102
70.5905
103.176
121.18
265.898
84.9994
243.563
89.3131
278.075
78.4333
129.091
248.211
217.819
120.667
264.03
271.113
82.8337
231.724
149.445
162.673
279.861
91.1531
175.013
87.4186
127.655
114.663
192.538
79.0684
162.35
69.162
64.6802
279.716
272.453
179.614
103.744
244.086
80.002
300
66.9118
145.518
98.2127
79.6838
282.824
97.9797
182.838
83.9201
96.395
129.021
130.138
60.2154
74.5643
63.7034
138.341
73.7695
143.094
283.713
277.629
114.4
287.948
86.1624
155.345
88.1838
261.779
80.8534
150.972
92.5677
76.9662
71.2742
85.6376
268.615
276.288
112.496
63.807
273.646
83.6014
135.63
86.5083
105.308
93.7367
60.1283
64.37
69.4386
288.272
178.478
110.161
122.208
298.641
105.394
199.642
84.996
87.0292
131.592
299.672
90.2169
79.4856
266.695
154.633
299.974
65.7728
260.892
259.595
204.619
100.034
208.123
268.671
78.2814
143.836
283.209
83.1578
287.082
276.882
83.8236
279.817
84.0513
270.646
102.538
134.971
83.9152
90.5796
126.064
207.033
259.516
118.165
70.3229
288.714
92.4106
93.3456
78.5345
82.7798
285.302
86.1895
234.477
266.014
104.588
120.826
96.9897
146.534
125.056
274.824
172.534
93.3635
274.041
143.234
130.549
223.04
86.0871
89.7739
211.071
262.459
272.993
92.9032
280.052
68.6181
102.444
146.469
254.467
100.122
96.9586
174.679
157.908
88.8199
163.002
88.8283
72.6779
105.418
138.199
274.006
61.7918
279.692
87.7849
64.8967
99.3675
63.1483
194.186
76.4508
104.002
174.466
85.5707
87.1653
256.972
113.691
67.2334
253.497
124.091
103.957
136.518
202.646
283.264
298.759
94.6183
234.744
154.213
113.11
66.7085
95.0141
222.804
138.892
179.408
155.269
85.7513
75.0885
73.3525
198.624
76.2266
247.234
104.773
169.605
68.1493
268.19
138.71
86.2495
84.578
69.375
89.833
186.985
96.8963
259.444
76.9605
111.194
84.7997
68.1765
227.965
103.316
280.531
261.58
121.786
64.9435
86.4923
100.468
61.787
101.114
270.334
141.696
92.4575
155.32
274.905
64.0314
80.2015
289.608
101.374
66.4896
153.384
87.2976
103.278
67.9911
149.654
265.755
169.666
277.033
68.1374
279.292
175.784
189.745
271.715
102.152
283.197
177.54
155.258
111.279
62.2324
80.857
66.7464
171.272
197.582
297.963
275.078
110.86
203.213
78.1655
266.203
78.8291
102.165
115.747
147.041
200.233
117.063
66.1302
103.703
88.0996
63.9739
68.0743
87.4572
120.504
114.805
166.363
160.879
105.34
114.198
257.362
93.7617
103.194
88.0639
116.897
271.7
181.149
89.9497
65.6887
180.331
99.9449
90.0615
273.585
229.237
98.5151
83.1924
105.167
291.069
277.817
84.9984
103.107
101.796
91.4639
103.103
67.9331
71.7026
282.075
91.863
163.697
247.352
135.053
141.66
275.833
99.2072
264.092
147.032
70.0173
243.351
161.44
155.858
276.741
68.4879
279.202
281.267
270.382
76.801
296.611
136.043
114.356
102.779
88.0049
122.95
299.842
299.287
98.2398
73.5415
101.079
108.781
278.06
170.258
177.202
289.491
260.001
68.2088
163.934
278.324
252.687
89.732
280.437
136.044
100.58
89.7616
273.235
107.138
113.228
289.493
80.8514
125.2
278.713
177.608
108.762
287.587
72.5091
272.867
85.7593
150.158
140.267
178.813
99.5139
74.5731
104.34
90.4148
117.558
88.1577
242.784
107.024
95.877
262.055
67.8221
115.032
79.2434
140.75
155.593
90.8917
61.2969
183.811
144.715
105.104
167.115
94.6376
113.131
109.43
67.7025
61.7721
65.3882
286.554
125.631
139.727
169.942
245.969
213.628
294.356
115.218
201.965
102.735
144.37
140.04
203.76
94.793
83.6106
259.883
225.848
67.7622
159.896
75.5881
278.525
233.698
73.1039
89.6967
164.278
179.356
293.826
152.319
94.7334
62.3374
81.2175
64.541
221.232
74.9077
194.704
255.611
157.854
122.934
248.368
220.491
91.343
155.631
133.86
267.679
297.516
105.356
257.153
296.908
299.721
225.884
267.605
86.317
235.164
92.2317
149.598
83.6428
90.0696
162.269
124.141
107.831
77.0597
208.083
95.7806
109.871
67.3285
250.629
209.333
97.6622
282.356
71.8731
271.837
298.806
299.775
72.6988
153.382
192.234
88.3319
76.8609
101.889
278.783
147.725
274.371
265.976
63.3402
60.6816
82.5199
66.4031
59.039
212.16
67.7258
190.343
62.3464
101.143
129.078
229.953
87.9576
75.0634
226.518
107.054
115.763
102.594
141.462
153.286
247.941
133.955
189.023
88.5813
141.644
77.6923
229.716
179.736
139.568
144.7
85.832
165.524
264.096
115.048
127.275
199.364
156.082
79.299
157.16
97.7607
68.0649
76.0863
232.371
288.703
83.6146
91.4488
67.8064
70.0121
69.4454
68.3432
67.3439
251.978
263.841
239.764
262.035
228.418
244.857
87.3091
67.0387
106.951
104.423
114.122
65.8117
62.8992
116.132
244.209
70.7693
102.845
204.021
113.638
140.836
78.7756
110.583
67.4172
157.797
100.499
74.7558
272.548
86.7829
176.867
158.382
64.1949
72.9201
89.2606
251.939
288.005
274.561
84.2309
217.394
112.335
90.3271
99.4229
113.286
121.811
298.488
277.923
94.6811
85.7407
263.811
252.974
69.8625
289.42
261.335
80.7142
112.708
280.964
263.731
129.529
99.9823
129.751
259.081
143.324
180.25
126.762
209.093
114.377
274.506
163.25
67.9134
273.456
96.9461
123.281
84.3533
168.44
80.8688
69.0178
113.033
121.728
137.819
104.682
279.578
68.453
267.41
267.543
72.0969
157.983
264.269
256.261
272.184
145.442
72.8002
106.86
108.801
111.682
81.8283
145.854
158.594
133.416
275.414
233.599
85.9354
79.6924
108.188
261.628
124.056
66.6349
63.4446
102.703
175.971
258.872
108.185
114.528
90.5267
125.553
225.081
93.6294
165.202
80.4997
76.4053
277.349
267.711
92.8459
152.503
269.032
144.565
269.986
100.872
242.673
97.3709
273.548
153.77
157.87
298.446
216.538
290.821
94.2728
99.4321
109.195
68.092
116.184
88.7589
123.792
68.3525
109.62
134.291
126.232
126.974
186.742
261.332
282.97
188.64
278.95
289.906
283.121
106.411
67.321
176.47
271.517
93.6386
91.5755
83.663
97.2108
75.2734
89.444
96.2724
258.441
269.906
240.844
151.95
88.5935
80.4245
75.2432
281.334
217.27
118.389
85.3427
262.737
101.969
172.19
268.24
72.4225
77.7499
86.575
76.5166
106.409
78.3057
149.567
74.0543
283.493
147.233
121.964
283.452
217.283
259.285
292.936
292.949
185.21
279.557
80.6863
201.675
270.091
67.926
217.824
268.503
208.534
216.206
148.376
196.652
101.189
154.599
76.5366
71.1524
95.0658
82.0009
115.86
89.2759
69.0524
84.2222
172.83
83.6984
153.085
155.079
94.553
73.7962
75.0427
74.4714
88.8432
119.048
67.2348
89.7623
73.78
126.122
171.425
105.231
117.634
211.454
88.6624
103.397
283.828
281.588
138.558
111.498
168.162
127.281
236.877
83.5731
116.682
71.5307
206.558
99.8712
211.476
129.767
89.1746
163.569
142.058
115.51
75.0908
297.065
248.663
90.5802
140.344
109.922
162.137
278.518
134.238
263.94
182.94
143.354
86.3137
87.6014
61.4504
296.592
149.145
261.101
120.126
103.349
269.955
218.45
69.0526
282.748
104.941
268.855
85.4054
73.7976
178.345
90.8825
270.342
63.1428
106.885
229.54
145.56
203.697
211.662
135.239
133.497
93.6393
111.014
90.1357
109.352
180.042
250.276
244.953
299.252
277.009
68.5837
78.1955
88.9668
180.2
84.9686
214.465
101.477
299.66
124.587
72.6271
79.5478
174.382
83.0308
147.84
259.398
203.248
94.9404
241.773
276.036
87.8959
196.222
127.713
102.923
109.354
191.653
69.8272
105.408
271.373
267.445
218.509
205.297
299.951
125.466
81.9928
77.4951
131.066
174.391
237.721
90.5025
109.421
92.6112
96.5331
183.173
278.037
91.4363
268.799
128.929
106.922
109.83
66.5916
85.2772
166.498
78.0455
155.221
268.628
172.979
97.8936
128.477
247.836
63.9219
63.4296
116.572
127.365
88.837
134.969
145.446
75.2446
266.2
94.5536
299.956
67.5324
272.563
177.218
225.226
123.603
88.6453
268.404
203.247
263.926
70.5153
110.677
114.59
172.249
70.7278
134.86
109.736
95.2946
270.508
264.072
142.768
76.4389
86.8733
80.6308
109.182
266.832
64.9171
124.096
267.931
183.791
174.723
227.29
268.152
75.4151
279.436
157.803
281.754
138.933
82.9121
82.298
141.301
260.875
80.4605
156.301
208.14
140.063
123.824
103.758
240.031
274.564
87.2174
99.589
157.492
187.253
240.972
166.58
264.106
79.0414
67.0229
129.189
222.987
158.642
83.942
299.996
84.1927
172.351
289.071
84.3643
190.399
225.119
115.081
93.1991
58.79
60.4333
67.6664
234.879
61.5511
162.305
63.431
135.351
63.6779
214.224
71.0347
62.2683
81.3178
168.826
143.758
135.249
110.266
109.422
85.4888
84.5201
72.1855
268.394
96.8599
299.934
299.15
164.349
267.636
82.2803
69.7522
175.059
171.571
123.268
255.621