/*--------------------------------*- C++ -*----------------------------------*\
  =========                 |
  \\      /  F ield         | OpenFOAM: The Open Source CFD Toolbox
   \\    /   O peration     | Website:  https://openfoam.org
    \\  /    A nd           | Version:  8
     \\/     M anipulation  |
\*---------------------------------------------------------------------------*/
FoamFile
{
    version     2.0;
    format      ascii;
    class       volVectorField;
    location    "6e-05";
    object      U;
}
// * * * * * * * * * * * * * * * * * * * * * * * * * * * * * * * * * * * * * //

dimensions      [0 1 -1 0 0 0 0];

internalField   nonuniform List<vector> 
23640
(
(-638.269 2458.78 0)
(-42.3288 2749.7 0)
(380.739 326.634 0)
(-17.9855 128.108 0)
(386.299 2623.34 0)
(-482.179 1738.78 0)
(-138.896 2769.76 0)
(-187.872 2404.51 0)
(-266.359 2531.99 0)
(2141.35 726.815 0)
(-34.7962 436.578 0)
(929.788 2535.81 0)
(274.932 2635.82 0)
(361.125 2656.47 0)
(-1122.69 1178.57 0)
(-422.976 1779.64 0)
(1062.02 2465.66 0)
(-100.203 1045.44 0)
(42.5434 738.482 0)
(-1404.57 2151.95 0)
(-85.7775 525.832 0)
(574.491 221.432 0)
(-82.6903 539.782 0)
(135.246 496.001 0)
(-347.964 2574.55 0)
(296.799 2728.03 0)
(-101.806 2130.41 0)
(822.614 2355.34 0)
(1199.81 2412.52 0)
(510.403 2547.22 0)
(133.658 2682.37 0)
(-6.34613 7.21777 0)
(-89.8355 521.367 0)
(-1294.52 2302.34 0)
(-1800.78 1633.89 0)
(-1363.25 948.284 0)
(997.902 2444.3 0)
(1064.99 2444.7 0)
(1380.34 681.93 0)
(91.0332 335.796 0)
(1401.59 2296.13 0)
(-254.718 2484.86 0)
(457.902 2600.65 0)
(-1556.5 1022.81 0)
(-11.373 83.1518 0)
(925.271 1697.71 0)
(524.238 2571.08 0)
(653.712 2650.38 0)
(2135.88 725.256 0)
(-179.616 2390.42 0)
(4.27041 20.6969 0)
(-59.8986 1019.81 0)
(-1468.2 776.069 0)
(-671.646 2634.76 0)
(-15.8526 126.224 0)
(748.025 157.283 0)
(-779.979 2033 0)
(-200.016 2664.64 0)
(20.7362 2850.11 0)
(29.8826 92.9086 0)
(98.4101 2671.72 0)
(-582.639 1901.1 0)
(40.3972 243.884 0)
(-56.6242 978.222 0)
(220.302 2830.66 0)
(-60.6882 984.728 0)
(-277.831 1794.86 0)
(-356.628 2591.06 0)
(130.79 1076.12 0)
(437.524 2612.09 0)
(76.2519 262.458 0)
(-1283.96 2359.54 0)
(-143.872 716.558 0)
(-903.616 2555.51 0)
(381.497 1762.68 0)
(-8.49702 9.55842 0)
(-238.602 41.2555 0)
(308.635 2634.62 0)
(42.6832 727.391 0)
(-36.3137 264.609 0)
(854.251 1648.85 0)
(1691.81 1525.08 0)
(125.283 2809.15 0)
(124.768 2809.54 0)
(204.44 2851.38 0)
(-1581.19 414.036 0)
(-63.0785 1028.19 0)
(96.4851 328.025 0)
(-169.182 626.769 0)
(-1122.6 1257.36 0)
(-224.937 2829.7 0)
(-240.968 2617.62 0)
(-1793.2 1322.33 0)
(-120.938 713.856 0)
(17.658 1046.55 0)
(42.2998 2597.14 0)
(-55.9084 951.338 0)
(1072.6 350.882 0)
(-65.8362 2354.3 0)
(-1901.59 1071.74 0)
(1998.66 1159.88 0)
(-674.012 2632.59 0)
(131.489 466.835 0)
(1056.85 2496.21 0)
(1957.36 1559.94 0)
(1100.25 2430.78 0)
(43.1689 155.824 0)
(-777.545 2541.14 0)
(-548.544 2639.86 0)
(-37.8685 2421.7 0)
(268.143 2676.54 0)
(-138.885 712.821 0)
(220.999 2624.77 0)
(1411.27 2283.65 0)
(1554.47 1291.65 0)
(-1230.06 2398.87 0)
(-1090.33 1108.29 0)
(-391.074 2679.97 0)
(-698.265 2421.34 0)
(459.749 2513.62 0)
(112.072 391.686 0)
(3.93328 34.0278 0)
(915.337 431.999 0)
(0.382676 32.7031 0)
(1000.16 2155.92 0)
(110.326 394.457 0)
(4.97292 17.9928 0)
(1799.82 1183.12 0)
(-490.948 1820.83 0)
(1352.24 2331.42 0)
(203.257 2419.55 0)
(1822.51 1486.31 0)
(197.234 2647.65 0)
(-685.829 2184.81 0)
(-1100.79 2460.57 0)
(81.428 289.981 0)
(-70.2451 460.194 0)
(-360.898 2589.05 0)
(32.5943 448.068 0)
(-62.0593 899.441 0)
(-68.1842 2369.72 0)
(-790.012 2018.52 0)
(-151.842 733.351 0)
(-30.1243 434.488 0)
(174.327 720.223 0)
(-135.287 2560.16 0)
(-50.9246 387.012 0)
(85.0153 341.088 0)
(-257.56 2816.13 0)
(171.624 998.309 0)
(-159.353 2375.7 0)
(368.799 1218.58 0)
(145.557 2793.65 0)
(-11.4109 195.946 0)
(1375.7 2035.05 0)
(-1274.46 2285.06 0)
(-126.94 2790.08 0)
(-513.625 2607.07 0)
(214.858 1881.5 0)
(-75.4732 2124.36 0)
(-986.991 1106.99 0)
(-1699.38 571.695 0)
(-1314.94 988.968 0)
(-215.876 1801.39 0)
(1194.77 2452.82 0)
(1332.88 2520.82 0)
(54.5128 200.613 0)
(-1361.49 1450.91 0)
(41.5238 155.07 0)
(1860.07 1487.03 0)
(661.135 2654.96 0)
(1682.26 1222.08 0)
(369.877 1801.88 0)
(-586.294 2640.32 0)
(46.2304 202.151 0)
(-47.9269 199.677 0)
(1356.47 2327.56 0)
(1537.41 1147.09 0)
(-36.7022 259.928 0)
(-193.498 2557.49 0)
(-9.22889 84.1468 0)
(840.392 186.796 0)
(-365.901 2588.59 0)
(-902.241 2408.42 0)
(1208.29 2401.52 0)
(247.986 1494.8 0)
(-791.261 2224.19 0)
(-1924.38 1338.09 0)
(-33.0576 100.972 0)
(-895.13 2381.6 0)
(-408.635 2246.41 0)
(57.2157 420.041 0)
(-6.48274 40.1255 0)
(137.599 2804.67 0)
(920.892 2588.66 0)
(102.417 340.982 0)
(1994.61 1552.13 0)
(-808.926 1743.51 0)
(1273.39 463.36 0)
(1259.26 1746.72 0)
(-9.34718 596.601 0)
(1678.12 1260.54 0)
(1076.43 2433.08 0)
(-240.946 2480.45 0)
(-68.2686 670.874 0)
(138.414 2842.35 0)
(1119.88 368.403 0)
(-86.8902 535.194 0)
(1808.93 1080.91 0)
(53.0889 201.382 0)
(374.645 2663.36 0)
(-378.918 2587.6 0)
(45.6997 2579.54 0)
(169.837 2842.65 0)
(368.91 1064.82 0)
(-23.9888 2534 0)
(611.185 2632.98 0)
(-1374.24 2172.12 0)
(-186.409 2170.27 0)
(-1872.49 1441.7 0)
(-40.8146 2580.42 0)
(49.0963 436.134 0)
(-15.3424 592.942 0)
(961.303 2521.2 0)
(-139.412 522.762 0)
(150.043 2648.69 0)
(-372.563 2711.91 0)
(3.74522 32.4467 0)
(-1927.84 1471.45 0)
(-223.331 2830.06 0)
(-542.136 2498.11 0)
(-951.888 2478.86 0)
(1404.58 2140.5 0)
(-399.87 2609.87 0)
(-502.091 2610.03 0)
(1691.05 1601.42 0)
(73.5876 268.37 0)
(-7.29927 2523.12 0)
(-254.502 2805.27 0)
(1011.37 1497.52 0)
(1956.06 1208.48 0)
(-1426.6 1386.83 0)
(1412.28 2288.74 0)
(-237.526 2422.8 0)
(-16.6253 139.502 0)
(738.943 2607.5 0)
(166.612 2419.82 0)
(1046.68 258.246 0)
(-3.04981 256.937 0)
(117.825 424.934 0)
(28.4496 88.7119 0)
(830.664 2604.14 0)
(521.904 2572.78 0)
(46.6709 198.758 0)
(54.0809 2835.13 0)
(88.0929 333.142 0)
(-888.89 443.306 0)
(-903.557 2520.94 0)
(-38.3955 140.935 0)
(-40.1428 144.379 0)
(-17.5668 99.2509 0)
(613.945 2600.93 0)
(1946.9 1307.13 0)
(-471.1 2670.17 0)
(1458.78 2150.14 0)
(475.532 2615.69 0)
(513.998 2158.59 0)
(-80.0825 2320.84 0)
(47.3417 2855.44 0)
(42.9884 1077.66 0)
(2057.09 1077.71 0)
(1460.69 2260.76 0)
(106.319 359.717 0)
(-31.9315 99.3553 0)
(1825.16 1134.66 0)
(-1203.08 2386.59 0)
(1205.83 2337.28 0)
(4.44625 34.0677 0)
(10.8682 974.141 0)
(-603.421 2641.2 0)
(111.907 381.356 0)
(1702.15 1887.26 0)
(300.18 1502.99 0)
(-23.9373 410.973 0)
(-387.022 2202.49 0)
(703.515 1843.37 0)
(-68.8444 2277.08 0)
(797.467 1387.67 0)
(-511.185 2723.18 0)
(-22.6636 417.144 0)
(-200.062 2544.01 0)
(-1004.24 2484.27 0)
(-55.1575 2557.38 0)
(-229.327 2048.48 0)
(33.4298 454.555 0)
(212.878 2435.45 0)
(1290.34 2363.2 0)
(-856.376 2517.54 0)
(295.16 2702.62 0)
(928.822 2283.79 0)
(-1315.99 1459.43 0)
(-59.9809 957.857 0)
(2.95566 31.5337 0)
(-228.5 2610.9 0)
(-73.5133 480.349 0)
(1314.78 2457.47 0)
(1752.25 1560.44 0)
(-982.179 1857.39 0)
(-15.8349 110.124 0)
(-156.113 723.06 0)
(883.766 2555.91 0)
(1809.33 1216.95 0)
(-46.207 201.164 0)
(89.8506 728.494 0)
(-33.6733 606.411 0)
(576.611 2149.78 0)
(-1942.82 1340.49 0)
(-605.699 383.435 0)
(18.2411 1025.95 0)
(-436.18 1946.65 0)
(687.052 2178.31 0)
(-1188.68 2393.86 0)
(-1821.32 1606.05 0)
(797.541 2377.62 0)
(-1104.97 2468.12 0)
(-1953.63 1062.84 0)
(35.1911 113.278 0)
(-133.199 2472.24 0)
(561.689 2214.61 0)
(9.37537 11.8687 0)
(-338.359 1465.08 0)
(-209.608 2419.94 0)
(-916.243 2398.76 0)
(-616.41 2386.89 0)
(-134.812 2512.78 0)
(-230.355 2604.72 0)
(1073.46 262.401 0)
(2046.47 1134.66 0)
(218.939 2410.01 0)
(294.399 2703.95 0)
(-1240.4 319.094 0)
(-175.268 823.759 0)
(1359.22 2047.41 0)
(-4.11529 36.7828 0)
(81.4533 408.757 0)
(-84.42 1079.18 0)
(-726.563 1927.47 0)
(861.292 2559.39 0)
(228.01 2645.73 0)
(1370.23 2186.31 0)
(-40.1223 145.949 0)
(-2002.56 1001.34 0)
(-882.176 2546.19 0)
(-363.059 2685.61 0)
(-1810.81 1633.69 0)
(1228.06 2491.39 0)
(-103.147 2322.57 0)
(-857.681 2509.21 0)
(43.5182 243.399 0)
(45.438 431.148 0)
(-751.442 2244.36 0)
(-57.7125 500.131 0)
(-67.6429 905.411 0)
(1029.87 2260.47 0)
(-51.4688 2514.57 0)
(1753.49 1951.38 0)
(1500.06 2192.1 0)
(2110.8 957.42 0)
(23.598 728.376 0)
(-451.671 2504.56 0)
(-1725.95 1136.43 0)
(186.006 698.4 0)
(880.256 2549.74 0)
(-33.3109 597.555 0)
(972.845 2110.79 0)
(-876.986 2546.87 0)
(29.3219 87.2947 0)
(-1292.83 1122.74 0)
(-131.096 2472.46 0)
(420.899 2181.84 0)
(139.909 728.434 0)
(187.921 717.937 0)
(-58.5054 2556.94 0)
(-168.496 836.909 0)
(-39.8566 2465.08 0)
(-1271.98 2463.93 0)
(-1859.63 1041.08 0)
(1379.14 2470.49 0)
(96.3925 344.573 0)
(-1516.15 2133.71 0)
(11.0502 1140.3 0)
(-612.267 1582.16 0)
(-402.53 71.9005 0)
(-1585.06 854.538 0)
(-1456.92 1790.42 0)
(121.25 445.13 0)
(-5.09252 37.4074 0)
(1149.67 2411.86 0)
(550.59 2583.1 0)
(-907.125 1884.25 0)
(-1158.15 1476.03 0)
(56.8624 193.337 0)
(798.5 1955.81 0)
(1367.64 2282.08 0)
(366.977 2618.92 0)
(-292.793 2724.43 0)
(31.2277 122.282 0)
(1172.37 2479.63 0)
(1567.66 1229.51 0)
(189.042 1985.7 0)
(-758.004 1728.08 0)
(-5.83733 259.772 0)
(-43.6443 173.079 0)
(-456.101 2402.63 0)
(-46.3468 385.372 0)
(1331.42 2306.54 0)
(762.683 1831.16 0)
(-105.352 2636.11 0)
(674.848 2175.37 0)
(1310.8 2244.4 0)
(-38.3445 143.169 0)
(19.6985 1124.62 0)
(398.085 2696.72 0)
(-734.828 1548.81 0)
(2129.3 799.026 0)
(-1311.62 2382.88 0)
(-1.89866 35.3309 0)
(906.674 398.642 0)
(-60.4266 493.945 0)
(31.4197 2101.95 0)
(1270.08 2269.06 0)
(13.461 71.4039 0)
(-55.391 209.586 0)
(-90.612 551.838 0)
(-15.6648 2358.91 0)
(78.1268 405.024 0)
(-1663.4 1189.91 0)
(1134.85 1013.53 0)
(1198.29 1428.88 0)
(31.388 97.3454 0)
(-641.106 2375.02 0)
(48.3914 238.976 0)
(1087.4 734.915 0)
(-2075.16 722.558 0)
(-234.419 1700.1 0)
(-203.897 2104.01 0)
(-824.074 1894.44 0)
(2000.44 1097.42 0)
(18.4749 548.127 0)
(2124.37 946.982 0)
(-0.228381 0.697947 0)
(-266.611 1926.22 0)
(44.586 195.983 0)
(-605.406 1737.28 0)
(-17.4745 1175.21 0)
(-1243.2 2431.41 0)
(-504.753 2740.09 0)
(1758.22 1558.29 0)
(-38.7049 137.514 0)
(1916.38 965.919 0)
(664.269 2187.05 0)
(-380.664 2216.18 0)
(746.782 2530.34 0)
(0.29767 0.0965511 0)
(1499.07 1141.51 0)
(452.059 2515.55 0)
(-1566.61 1155.82 0)
(436.369 103.482 0)
(-2107.89 980.478 0)
(-415.827 2237.99 0)
(144.42 2436.51 0)
(-360.612 2550.47 0)
(-15.4416 96.5636 0)
(1501.08 1569.73 0)
(989.454 2105.09 0)
(-708.609 1809.48 0)
(484.566 2630.93 0)
(4.07403 3.70329 0)
(1819.72 1212.03 0)
(0.459595 45.7837 0)
(-137.884 2254.4 0)
(-1390.51 2106.53 0)
(-218.483 2550.48 0)
(-2080.57 731.675 0)
(963.869 1407.34 0)
(1889.65 1039.65 0)
(-119.121 524.758 0)
(1813.14 1434.23 0)
(-139.893 2674.97 0)
(-583.138 2587.19 0)
(358.905 2200.68 0)
(-5.19459 50.8815 0)
(574.299 2538.01 0)
(109.841 433.643 0)
(-169.287 2506.82 0)
(-291.94 2725.16 0)
(-1830.03 1349.78 0)
(-407.838 1484.06 0)
(1780.26 1205.59 0)
(1035.14 2408.48 0)
(147.996 2595.05 0)
(-23.8395 307.468 0)
(-1333.16 2407.56 0)
(-177.975 2594.57 0)
(-55.7455 2578.3 0)
(35.5795 2851.96 0)
(-1484.22 1831.53 0)
(994.902 2554.37 0)
(-1004.92 2455.34 0)
(453.852 2600.78 0)
(841.65 1730.11 0)
(687.372 2174.91 0)
(-1889.12 630.437 0)
(-1631.03 451.08 0)
(-94.9459 566.125 0)
(-578.104 2624.16 0)
(698.919 2548.17 0)
(969.506 2553.99 0)
(-232.975 2378.84 0)
(-32.7109 378.547 0)
(-772.763 1580.23 0)
(21.7419 1211.84 0)
(-0.0873394 0.324275 0)
(-930.601 959.443 0)
(-404.776 2720.57 0)
(269.453 2622.4 0)
(111.867 596.104 0)
(636.675 2256.11 0)
(135.131 721.572 0)
(44.1658 2851.59 0)
(-348.187 2704.59 0)
(-137.648 524.4 0)
(1695.21 1347.07 0)
(-333.32 538.583 0)
(-849.378 231.697 0)
(-127.17 2631.04 0)
(-1567.88 831.82 0)
(1968.41 1285.24 0)
(-789.077 2549.2 0)
(956.506 2520.76 0)
(-45.1435 1753.28 0)
(-187.489 2579.79 0)
(-139.248 2498.9 0)
(400.152 2696.55 0)
(559.148 2612.78 0)
(483.206 2585.28 0)
(-945.424 969.202 0)
(171.069 686.944 0)
(473.958 2533.62 0)
(474.769 2534.26 0)
(1082.39 1464.5 0)
(-400.88 2612 0)
(-735.977 173.155 0)
(-1876.13 1428.67 0)
(1260.35 1411.11 0)
(-540.77 2573.77 0)
(304.89 2657.32 0)
(-1405.06 1312.22 0)
(-66.0035 464.797 0)
(44.1488 203.554 0)
(87.0214 1448.91 0)
(-88.3084 382.177 0)
(-197.85 2596.06 0)
(1275.75 1720.58 0)
(-63.5804 853.094 0)
(-85.5417 552.845 0)
(406.018 2000.19 0)
(69.5775 635.214 0)
(1370.26 1291.64 0)
(1838.1 932.108 0)
(0.547672 0.882107 0)
(388.213 2645.78 0)
(-165.375 2498.33 0)
(-1192.7 2376.01 0)
(-538.695 2633.16 0)
(30.0549 731.499 0)
(1082.72 463.69 0)
(-1663.18 437.435 0)
(2057.29 1269.15 0)
(652.513 2588.32 0)
(10.9555 68.8338 0)
(-3.21422 2470.12 0)
(-854.889 2511.36 0)
(642.007 2254.41 0)
(87.2501 719.274 0)
(166.155 604 0)
(11.045 1975.7 0)
(2051.64 1269 0)
(336.68 2729.38 0)
(64.5571 630.983 0)
(-16.6218 252.22 0)
(367.961 2555.42 0)
(1410.33 2289.26 0)
(-233.511 2409.11 0)
(33.1229 2840.6 0)
(23.6695 1010.34 0)
(-1382.54 2200.53 0)
(-757.471 2139.59 0)
(-367.34 2544.02 0)
(-2105.63 944.365 0)
(-42.1666 390.02 0)
(18.1324 540.684 0)
(-38.0335 136.592 0)
(1754.5 1266 0)
(-428.204 2538.76 0)
(1512.95 410.959 0)
(-1387.82 1738.83 0)
(863.512 2137.75 0)
(-514.519 2636.18 0)
(116.779 601.36 0)
(528.324 2508.6 0)
(-146.046 2361.54 0)
(812.05 2566.25 0)
(-68.7316 2540.45 0)
(-517.052 1867.08 0)
(-1430 1762.46 0)
(-1000.91 335.241 0)
(-59.2484 2549.04 0)
(601.695 2631.46 0)
(0.35245 34.105 0)
(-64.5826 677.829 0)
(1308.07 2382.95 0)
(-427.949 2653.78 0)
(-16.1732 247.925 0)
(-452.901 2644.66 0)
(32.9857 1053.46 0)
(979.532 2569.24 0)
(-38.441 583.895 0)
(-285.959 2584.85 0)
(1095.6 718.478 0)
(1686.12 2026.24 0)
(134.961 2311.48 0)
(-1209.39 1352.27 0)
(-193.441 2570.86 0)
(-1829.08 1647.28 0)
(-17.92 110.262 0)
(41.8647 2597.52 0)
(999.449 2561.91 0)
(1155.94 2406.97 0)
(1127.64 1014.54 0)
(-232.381 2407.74 0)
(778.237 341.658 0)
(-89.4965 375.54 0)
(91.0826 2658.07 0)
(968.055 261.624 0)
(-6.62793 2476.94 0)
(-38.8251 592.652 0)
(-849.875 2073.85 0)
(-1218.26 2330.15 0)
(862.705 2558.15 0)
(-1728.31 1290.45 0)
(6.11057 36.4055 0)
(177.645 712.149 0)
(-186.381 2820.38 0)
(-1399.78 2181.47 0)
(-34.3949 105.864 0)
(1775.53 1203.2 0)
(-117.771 518.065 0)
(443.235 2576.72 0)
(-14.1822 1395.69 0)
(-198.845 2571.03 0)
(-1056.73 1702.28 0)
(-1234.89 2371.54 0)
(-1934 1039.88 0)
(224.537 78.6025 0)
(-251.786 74.0385 0)
(562.188 2164.26 0)
(-7.51472 42.9798 0)
(173.132 671.162 0)
(-413.052 2077.09 0)
(4.14046 33.4508 0)
(22.2991 2478.27 0)
(-375.032 2711.8 0)
(-1372.91 1428.83 0)
(-5.92412 948.927 0)
(708.612 2530.14 0)
(-173.367 2631.51 0)
(385.845 2632.39 0)
(-527.276 2599.37 0)
(-23.444 303.083 0)
(29.2514 86.5397 0)
(21.4382 2453.67 0)
(293.951 2648.12 0)
(1656.41 1100.99 0)
(-512.997 2607.77 0)
(-1154.3 2434.3 0)
(-28.1186 120.041 0)
(-1452.43 2223 0)
(919.112 1628.44 0)
(-3.84403 35.8233 0)
(1215.56 2383.06 0)
(947.175 206.801 0)
(-6.5989 1194.79 0)
(252.007 2706.38 0)
(36.1387 1238.4 0)
(1186.47 2304.11 0)
(767.87 1390.79 0)
(1088.83 2536.3 0)
(111.148 424.331 0)
(148.621 2648.95 0)
(-0.356437 0.611655 0)
(-6.0843 966.634 0)
(1464.15 2169.97 0)
(115.113 463.51 0)
(1187.6 2440.15 0)
(-337.261 2600.76 0)
(90.0379 329.304 0)
(1725.43 1468.9 0)
(-81.5183 317.201 0)
(1415.61 1969.7 0)
(-120.033 702.61 0)
(102.643 372.638 0)
(1877.21 1039.94 0)
(-1893.08 1681.86 0)
(-593.096 180.284 0)
(-1190.69 948.811 0)
(670.823 1633.12 0)
(-678.826 2710.75 0)
(-95.3882 558.475 0)
(916.639 583.178 0)
(1948.37 1458.27 0)
(-697.827 1838.44 0)
(2044.37 1119.27 0)
(1860.95 1799.48 0)
(-1188.24 2181.19 0)
(241.857 323.516 0)
(-1421.56 2091.06 0)
(786.662 2591.4 0)
(-1797.45 1800.8 0)
(-15.949 149.83 0)
(114.463 2567.46 0)
(-1037.69 2444.35 0)
(42.0995 299.071 0)
(-100.715 385.544 0)
(1313.63 2311.1 0)
(228.74 2645.99 0)
(299.109 172.183 0)
(1347.68 2323.99 0)
(38.2511 290.651 0)
(23.3597 2462.17 0)
(19.7611 1937.39 0)
(-570.234 2597.47 0)
(36.153 286.509 0)
(-1882.09 972.783 0)
(1008.49 2479.02 0)
(251.269 1381.94 0)
(-924.552 2461.85 0)
(197.909 859.639 0)
(1021.44 2577.29 0)
(-563.752 2492.48 0)
(145.889 1441.01 0)
(1489.95 2199.15 0)
(-259.425 2511.45 0)
(-562.12 2528.25 0)
(511.266 2607.8 0)
(4.20635 4.45202 0)
(186.346 2221.2 0)
(-741.432 2612 0)
(-54.0112 1055.04 0)
(81.4019 297.319 0)
(-538.212 2632.6 0)
(67.5208 2842.42 0)
(-51.3381 1227.55 0)
(-44.8235 2513.22 0)
(-30.8054 128.502 0)
(798.979 266.266 0)
(-28.5137 382.35 0)
(1044.65 2407.95 0)
(130.577 822.828 0)
(-1186.56 2191.32 0)
(861.415 1504.18 0)
(568.938 2530.33 0)
(-998.785 1702.49 0)
(371.512 2608.89 0)
(162.11 590.644 0)
(436.3 2583.02 0)
(-45.2976 172.915 0)
(33.9383 2463.53 0)
(-8.92613 1182.98 0)
(-1179.85 464.905 0)
(-2006.57 1302.75 0)
(3.11667 31.0308 0)
(644.727 443.734 0)
(-1278.09 478.157 0)
(973.051 366.701 0)
(4.93285 53.0425 0)
(-891.568 2076.88 0)
(1017.57 2559.76 0)
(-1012.15 2319.83 0)
(93.2448 2638.14 0)
(1566.23 1706.58 0)
(-1444.38 1039.85 0)
(172.91 760.842 0)
(-239.894 2584.86 0)
(1799.35 1720.7 0)
(115.318 438.657 0)
(-39.6822 1038 0)
(-49.1158 267.765 0)
(896.852 2440.5 0)
(-90.5611 328.868 0)
(-228.405 2368.49 0)
(-902.977 1954.75 0)
(-192.392 2527.18 0)
(269.12 2674.31 0)
(2108.23 979.304 0)
(34.7716 105.351 0)
(-676.187 2709.6 0)
(80.1471 718.337 0)
(-59.7273 337.893 0)
(-598.691 2493.07 0)
(-1792.74 640.445 0)
(140.205 532.848 0)
(-417.178 2632.01 0)
(32.4937 121.637 0)
(1678.92 479.239 0)
(624.264 2210.99 0)
(-278.267 2778.87 0)
(-190.31 681.548 0)
(-1062.35 1137.8 0)
(-621.069 2605.23 0)
(12.1494 2469.08 0)
(196.937 62.122 0)
(150.842 510.929 0)
(760.496 2370.69 0)
(522.302 422.347 0)
(85.8096 333.689 0)
(350.447 2416.53 0)
(897.892 2483.24 0)
(2033.59 1146.65 0)
(42.2572 1221.91 0)
(-470.166 2547.95 0)
(190.936 2228.47 0)
(1168.57 2403.7 0)
(38.1395 951.884 0)
(346.667 2610.78 0)
(116.929 2506.57 0)
(475.167 1904.63 0)
(-187.536 1681.84 0)
(-1029.46 866.839 0)
(-504.793 2572.17 0)
(50.1455 947.136 0)
(-452.332 2212.05 0)
(-3.01706 478.344 0)
(376.108 2501.19 0)
(1325.47 2325.17 0)
(-1240.39 2433.45 0)
(-12.0985 192.41 0)
(-451.108 2550.23 0)
(77.7987 299.57 0)
(386.332 2636.45 0)
(68.9956 2571.34 0)
(-101.447 2658.09 0)
(-1318.95 1344.2 0)
(277.728 2368 0)
(-22.6007 774.83 0)
(0.469054 1.37421 0)
(144.869 2309.08 0)
(-1728.9 1537.3 0)
(-243.422 2373.63 0)
(-1970.18 1226.29 0)
(1362.95 1961.77 0)
(638.081 2505.93 0)
(-439.766 2542.58 0)
(45.1077 152.186 0)
(-485.395 1926.75 0)
(400.611 2620.82 0)
(-1.64315 485.126 0)
(-1101.83 2442.43 0)
(-10.6078 63.4195 0)
(1078.69 818.728 0)
(-1880.21 1103.93 0)
(-82.0796 310.803 0)
(48.5212 247.068 0)
(-57.373 473.543 0)
(0.684718 1.47537 0)
(-1242.52 2357.54 0)
(35.1411 113.648 0)
(-964.811 1433.57 0)
(1168.42 2430.8 0)
(-1512.09 2128.82 0)
(-2002.89 1327.91 0)
(-219.344 2566.92 0)
(55.4826 953.388 0)
(108.168 2675.2 0)
(-1864.41 982.169 0)
(680.59 2115.75 0)
(-39.1475 266.902 0)
(393.21 2383.6 0)
(-28.2153 122.781 0)
(-241.085 2270.37 0)
(998.346 459.496 0)
(-559.947 2239.22 0)
(-835.385 2565.31 0)
(-1081.82 541.642 0)
(-75.8655 256.787 0)
(1396.41 2053.59 0)
(761.148 208.562 0)
(-46.2094 1838.02 0)
(-1706.86 1095.24 0)
(143.243 538.059 0)
(-28.1402 611.261 0)
(1336.05 548.634 0)
(492.388 2600.86 0)
(108.075 2674.88 0)
(-22.5368 1207.28 0)
(511.127 417.553 0)
(1647.95 1691.87 0)
(41.8289 1466.3 0)
(-225.56 2335.04 0)
(-1351.2 2399.44 0)
(-1664.7 1276.17 0)
(-1524.56 2102.52 0)
(2132.77 757.4 0)
(-1728.82 1606.91 0)
(35.7091 110.751 0)
(246.107 2577.46 0)
(412.23 1850.43 0)
(-42.3541 164.201 0)
(-69.531 646.655 0)
(42.9515 328.411 0)
(-653.115 1305.99 0)
(-175.673 809.173 0)
(441.303 2569.88 0)
(94.697 335.558 0)
(1341.61 2359.05 0)
(1331.59 896.619 0)
(976.603 2550.33 0)
(33.6755 2453.69 0)
(-1834.98 678.986 0)
(-0.746204 17.3329 0)
(42.4873 959.334 0)
(-126.674 717.458 0)
(-471.363 454.976 0)
(-1791.19 1816.15 0)
(-15.3762 92.9683 0)
(1596.13 1683.95 0)
(-1088.62 1000.21 0)
(227.591 2559.59 0)
(69.3852 2441.44 0)
(20.1638 284.959 0)
(-1293.09 375.121 0)
(1590.67 2159.24 0)
(1735.04 600.182 0)
(-515 1650.03 0)
(40.2065 325.003 0)
(967.49 1924.71 0)
(-76.7043 324.633 0)
(-30.8853 1172.56 0)
(854.221 2569.36 0)
(751.373 2542.99 0)
(1287.48 2368.11 0)
(48.2799 440.515 0)
(-1246.91 2293.7 0)
(-976.502 769.902 0)
(-188.411 2784.72 0)
(-230.624 2569.53 0)
(46.314 167.355 0)
(1159.32 447.323 0)
(727.797 2650.21 0)
(-925.855 2531.62 0)
(-1634.46 1758.72 0)
(-185.428 2826.84 0)
(-79.465 666.799 0)
(525.34 2284.36 0)
(-866.439 2566.8 0)
(-21.2939 1680.95 0)
(896.064 2594.3 0)
(-33.3797 101.865 0)
(66.9032 2838.89 0)
(440.472 2716.4 0)
(23.204 534.901 0)
(681.346 2503.1 0)
(54.3188 425.422 0)
(91.3221 2496.18 0)
(1296.63 556.393 0)
(454.774 2580.47 0)
(-1665.12 2034.35 0)
(-1083.01 796.435 0)
(420.034 2494.35 0)
(60.5055 271.011 0)
(-917.414 321.924 0)
(-49.6074 2798.78 0)
(-561.607 2635.98 0)
(947.614 2576.88 0)
(296.696 2727.41 0)
(138.7 708.516 0)
(1589.82 1172.61 0)
(622.168 2514.64 0)
(-104.817 399.002 0)
(-30.6391 743.951 0)
(-620.854 2353.16 0)
(-29.4338 129.364 0)
(225.044 2465.49 0)
(-1663.87 2034.51 0)
(80.3756 305.992 0)
(-85.1259 2500.06 0)
(33.16 99.8098 0)
(19.4076 2850.23 0)
(-76.8019 2422.57 0)
(814.297 1545.3 0)
(677.904 2072.52 0)
(495.638 2404.68 0)
(-3.24157 1168.32 0)
(-879.723 2382.33 0)
(-889.656 1082.03 0)
(-659.673 1902.48 0)
(-1766.38 1326.69 0)
(-858.55 2544.81 0)
(-904.55 230.959 0)
(-377.861 188.862 0)
(1502.74 2019.09 0)
(-107.143 2572.47 0)
(1079.2 2431.78 0)
(-167.183 2779.03 0)
(121.032 443.599 0)
(811.917 1914.98 0)
(-10.6958 2217.02 0)
(-337.863 2770.39 0)
(-1366.31 2264.8 0)
(242.621 62.0604 0)
(78.6741 708.19 0)
(11.143 45.4717 0)
(1737.04 1948.94 0)
(110.519 413.209 0)
(972.595 2264.44 0)
(1404.66 1959.65 0)
(-424.952 2747.46 0)
(-37.0155 139.273 0)
(-186.221 757.841 0)
(727.852 2648.48 0)
(-69.9908 828.422 0)
(1368.42 2071.31 0)
(143.481 2296.54 0)
(1319.5 2235.93 0)
(1128.58 2330.1 0)
(335.641 2520.86 0)
(-86.2545 2643.71 0)
(-1066.09 1287.05 0)
(33.962 2524.48 0)
(-532.901 2542.75 0)
(-499.348 2381.15 0)
(-74.6222 330.431 0)
(130.631 428.344 0)
(-292.412 2775.54 0)
(1189.49 2457.79 0)
(1181.13 1628.27 0)
(936.041 2483.81 0)
(741.945 1798.63 0)
(-10.0015 60.401 0)
(-1586.6 1777.85 0)
(259.134 2753.97 0)
(792.382 2583.82 0)
(14.8532 75.2673 0)
(-113.144 416.045 0)
(135.443 701.786 0)
(-445.218 2544.01 0)
(-56.2948 1062.93 0)
(317.172 2448.1 0)
(-228 94.0905 0)
(567.935 2528.5 0)
(-314.398 2015.92 0)
(-140.185 540.525 0)
(1025.23 2191.39 0)
(-9.00654 247.285 0)
(-129.06 2735.25 0)
(599.072 1973.87 0)
(-1872.59 1424.73 0)
(911.29 1955.04 0)
(-352.656 1508.02 0)
(-571.618 1262.69 0)
(-56.1643 211.579 0)
(-1593.18 2016.62 0)
(-2057.07 726.561 0)
(-872.534 1409.91 0)
(1050.44 1436.61 0)
(223.365 2408.1 0)
(-531.421 2220.46 0)
(9.98362 2691.6 0)
(-178.047 2760.61 0)
(116.702 425.64 0)
(-529.29 2589.36 0)
(-1569.15 884.168 0)
(-1967.21 1482.13 0)
(379.141 1686.57 0)
(359.139 120.073 0)
(-1071.09 1103.69 0)
(-2108.49 984.932 0)
(27.2747 700.595 0)
(57.3198 197.37 0)
(-1538.93 2163.33 0)
(858.444 2360.23 0)
(363.061 2523.38 0)
(296.284 2542.59 0)
(1240.99 1842.71 0)
(1544.22 1291.34 0)
(75.3761 2544.73 0)
(-504.687 2562.62 0)
(-644.842 2574.9 0)
(820.917 717.914 0)
(511.901 2713.36 0)
(-76.7374 2414.51 0)
(-1529.72 1430.12 0)
(1337.7 678.258 0)
(-16.8794 158.915 0)
(1117.08 2451.77 0)
(138.137 2556.28 0)
(-92.5383 497.435 0)
(1122.85 2070.39 0)
(34.7566 2496.48 0)
(679.721 1752.85 0)
(174.883 745.343 0)
(-95.6871 2297.86 0)
(329.821 2651.58 0)
(331.538 2652.87 0)
(301.586 2438.51 0)
(-148.317 2573.51 0)
(1203.86 1722.02 0)
(163.075 1472.73 0)
(-847.484 216.837 0)
(547.858 2372.94 0)
(53.2067 195.332 0)
(472.123 2598.14 0)
(733.887 2181.62 0)
(-1129.31 2428.84 0)
(706.213 2501.45 0)
(1.49688 29.0272 0)
(16.82 2577.18 0)
(1039.93 2411.91 0)
(18.0826 2576.9 0)
(-6.08846 77.8736 0)
(-124.809 693.077 0)
(-1450.23 437.525 0)
(-1449.28 445.414 0)
(45.6983 192.559 0)
(0.15213 0.263077 0)
(-834.633 2523.01 0)
(1963.97 1647.46 0)
(91.6131 2427.93 0)
(826.772 186.027 0)
(-1308.69 2257.58 0)
(5.44369 965.811 0)
(1289 338.617 0)
(1387.83 2360.74 0)
(54.8661 414.881 0)
(-77.1675 2278.59 0)
(-1804.72 1072.26 0)
(-18.2051 161.262 0)
(-35.7756 120.498 0)
(1294.12 2179.71 0)
(-418.63 1752.82 0)
(-918.979 1914.45 0)
(-1099.47 2435.95 0)
(-95.9505 2554.67 0)
(-77.9497 2296.06 0)
(-1276.75 2329.02 0)
(838.129 2538.9 0)
(-427.238 1524.46 0)
(-162.812 617.236 0)
(206.008 2415.89 0)
(-70.2809 485.699 0)
(-1504.99 2197.39 0)
(1843.6 571.508 0)
(114.573 966.788 0)
(1066.74 2397.79 0)
(-2040.11 1010.19 0)
(-1580.74 1887.86 0)
(136.321 810.843 0)
(-171.538 635.552 0)
(-242.76 2566.88 0)
(91.9687 1916.75 0)
(-378.555 2235.98 0)
(-1619.2 488.922 0)
(-1731.42 1606.14 0)
(-828.631 250.769 0)
(-1962.91 689.726 0)
(2024.25 974.952 0)
(-41.1279 2580.64 0)
(-122.903 682.434 0)
(-454.246 2330.07 0)
(-392.606 2608.42 0)
(-805.336 2396.21 0)
(79.5011 737.615 0)
(-70.807 655.332 0)
(1085.82 2532.16 0)
(1125.12 2319.9 0)
(-78.4043 615.43 0)
(1040.18 1426.4 0)
(-1202.97 2449.3 0)
(-120.792 459.962 0)
(542.294 2498.08 0)
(-168.453 857.514 0)
(528.184 2526.75 0)
(-237.221 1783.6 0)
(101.582 2421.09 0)
(542.385 2616.57 0)
(-834.757 2621.71 0)
(1027.79 2454.1 0)
(0.399356 0.589145 0)
(45.0874 2165.34 0)
(-37.2887 387.63 0)
(-434.41 2688.34 0)
(-413.635 2238.62 0)
(-37.1653 381.141 0)
(-317.641 2657 0)
(849.318 2498.23 0)
(556.131 2365.39 0)
(-1872.21 553.946 0)
(-108.717 413.929 0)
(-1033.61 256.573 0)
(47.9525 409.763 0)
(1354.24 2319.58 0)
(-371.395 2653.72 0)
(137.532 2581.69 0)
(582.505 2633.66 0)
(-688.819 2243.79 0)
(859.524 2600.35 0)
(-114.132 2681.67 0)
(61.9144 1457.39 0)
(617.871 2511.45 0)
(-1474.43 1279.33 0)
(-323.881 2729.11 0)
(-1822.57 586.524 0)
(439.57 2549.79 0)
(-32.7631 1126.55 0)
(47.3134 451.835 0)
(-1353.54 2292.29 0)
(18.3831 281.135 0)
(273.475 1400 0)
(-13.3901 90.0449 0)
(-1573.02 1893.58 0)
(960.977 834.649 0)
(-226.831 2755.46 0)
(-69.8323 814.396 0)
(473.612 2411.89 0)
(-388.902 334.705 0)
(513.473 2712.5 0)
(-1126.38 2471.77 0)
(-606.03 2607.37 0)
(-1790.7 1259.48 0)
(116.416 2521.4 0)
(-591.947 2638.34 0)
(1931.6 1470.81 0)
(411.824 1841.96 0)
(42.0044 151.74 0)
(-440.024 1002.07 0)
(-1909.41 1684.56 0)
(-136.57 2557.87 0)
(124.735 1007.26 0)
(160.795 2204.71 0)
(-734.518 191.607 0)
(-0.809061 9.49462 0)
(-1026.58 669.747 0)
(1532.89 2014.6 0)
(-780.876 2533.03 0)
(1844.6 558.663 0)
(70.3939 2359.16 0)
(370.434 2662.3 0)
(703.964 1985.58 0)
(775.866 2533.97 0)
(631.433 2236.86 0)
(-22.6133 374.716 0)
(-399.32 2174.28 0)
(171.712 846.928 0)
(95.3916 1923.68 0)
(1702.48 1622.43 0)
(-193.555 2577.62 0)
(200.923 2712.9 0)
(616.933 137.969 0)
(-1247.14 2352.52 0)
(-199.256 2543.72 0)
(71.3679 241.628 0)
(-1538.06 877.181 0)
(-393.81 197.45 0)
(-489.389 502.317 0)
(-130.861 2560.94 0)
(-62.5717 323.505 0)
(324.833 1668.12 0)
(39.9553 378.642 0)
(343.102 2464.86 0)
(115.321 2591.76 0)
(-256.632 547.654 0)
(41.1044 1092.15 0)
(-1521.37 2206.51 0)
(-14.3314 492.159 0)
(717.397 894.51 0)
(-106.462 2635.87 0)
(635.727 2593.54 0)
(19.635 2676.81 0)
(321.887 207.6 0)
(-430.195 2317.36 0)
(1344.21 2310.13 0)
(830.223 1209.99 0)
(-2041.04 710.673 0)
(437.016 2548.21 0)
(-1109.61 331.587 0)
(-406.651 2254.67 0)
(68.767 749.732 0)
(-22.7783 2815.47 0)
(-1043.4 2427.69 0)
(-61.0258 2539.23 0)
(-824.74 2623.42 0)
(582.157 2607.69 0)
(1355.36 632.628 0)
(232.148 2669.59 0)
(-776.642 2516.24 0)
(237.271 2515.33 0)
(0.166306 0.298129 0)
(-2098.58 933.098 0)
(-301.468 2079.64 0)
(-1789.76 1673.85 0)
(76.3197 746.804 0)
(43.0252 450.385 0)
(-63.3988 339.23 0)
(355.142 2504.07 0)
(2034.1 682.29 0)
(137.877 2420.62 0)
(-21.1762 598.374 0)
(592.045 2718.09 0)
(-180.728 2686.66 0)
(-666.674 2556 0)
(1753.13 1870.09 0)
(-1575.81 2000.73 0)
(-1154.34 2374.95 0)
(1503.95 1974.82 0)
(1302.62 2479.72 0)
(976.352 1882.9 0)
(-1254.21 2338.56 0)
(86.1624 342.909 0)
(-1260.74 1404.26 0)
(1267.44 2100.8 0)
(447.898 2634.5 0)
(-1093.13 2492.9 0)
(-198.055 2227.51 0)
(1409.27 2302.57 0)
(-43.467 161.904 0)
(356.222 2497.27 0)
(1265.2 1593.78 0)
(-1106.25 2504.16 0)
(-43.2993 258.157 0)
(49.8344 235.333 0)
(-994.032 2510.5 0)
(1621.69 2083.44 0)
(-31.2262 2615.74 0)
(1466.84 1577.04 0)
(1148.48 2388.28 0)
(-1989.29 1431.05 0)
(-1684.42 1725.35 0)
(-11.1932 487.501 0)
(2124.18 790.186 0)
(-42.0571 204.927 0)
(1263.34 354.338 0)
(-1272.77 2360.08 0)
(-493.987 2635.7 0)
(1870.82 1576.08 0)
(1336.06 2247.09 0)
(7.72573 8.49781 0)
(-74.4347 260.294 0)
(-486.915 991.121 0)
(-1605.55 1334.36 0)
(-1781.92 1468.87 0)
(-947.476 351.766 0)
(162.829 708.767 0)
(-38.2824 2663.13 0)
(243.025 2764.96 0)
(1732.5 1978.61 0)
(1307.6 783.904 0)
(1.89992 5.26687 0)
(-374.835 2501.66 0)
(-28.4617 144.97 0)
(848.999 2505.66 0)
(1168.35 2444.03 0)
(1209.52 2335.62 0)
(13.4998 2476.65 0)
(1092.7 2454.18 0)
(836.72 2120.39 0)
(1600.7 474.103 0)
(62.8736 743.763 0)
(-68.4068 263.11 0)
(-659.481 174.858 0)
(-1450.53 2024.77 0)
(-92.8413 2515.61 0)
(108.318 2305.66 0)
(-51.8145 2686.94 0)
(-776.184 1840.04 0)
(2119.07 933.363 0)
(-1477.46 1286.85 0)
(1742.11 1869.4 0)
(885.086 1974.56 0)
(-19.9542 346.163 0)
(583.939 2039.05 0)
(179.113 2712.83 0)
(-1234.9 2365.92 0)
(-430.264 1605.71 0)
(-1795.29 1014.99 0)
(1661.82 1228.14 0)
(781.122 2625.8 0)
(1029.86 2240.23 0)
(-231.572 2085.13 0)
(620.958 2517.16 0)
(853.541 1672.47 0)
(790.597 2246.28 0)
(1351.01 2109.19 0)
(27.5299 932.681 0)
(-157.093 573.927 0)
(-182.871 871.712 0)
(163.892 621.705 0)
(1474.6 2304.28 0)
(36.199 376.837 0)
(22.234 1056.64 0)
(949.954 1078.22 0)
(19.8271 2463.21 0)
(1002.02 2572.88 0)
(-1287.61 594.014 0)
(1680.87 1899.92 0)
(-87.8022 315.255 0)
(864.609 2549.02 0)
(1027.84 2440.65 0)
(-693.103 2674.39 0)
(1842.43 1586.92 0)
(446.848 2649.24 0)
(49.7998 415.099 0)
(-804.868 2480.74 0)
(1328.2 1730.64 0)
(-40.8533 207.562 0)
(323.777 2022.34 0)
(86.6512 1223.83 0)
(785.777 1557.12 0)
(1668.63 1924.76 0)
(-287.374 1892.71 0)
(-1075.15 2241.81 0)
(-518.848 2605.97 0)
(-283.021 2686.92 0)
(-814.984 2481.09 0)
(1481.18 443.305 0)
(-646.716 2593.15 0)
(589.384 124.545 0)
(-864.172 401.923 0)
(-586.489 2611.53 0)
(-75.0473 640.02 0)
(-1255 2422.88 0)
(-63.3169 2178.02 0)
(159.24 2628.36 0)
(1569.37 1431.5 0)
(-272.411 1492.55 0)
(763.615 1938.76 0)
(-1934.77 1554.46 0)