0 	0 	0 	0 	0 	0
-3.34597e-021 	8.49561e-005 	1.99971e-019 	0.0106269 	0.305882 	0
1.85288e-021 	0.000165142 	1.99971e-019 	0.0528832 	0.792871 	0
1.79995e-021 	0.000165952 	1.99971e-019 	0.0537717 	0.79778 	0
1.58819e-021 	0.000167208 	1.99971e-019 	0.055889 	0.811262 	0
3.38813e-021 	0.000246429 	1.99971e-019 	0.124742 	1.63613 	0
-3.38813e-021 	0.000286935 	1.99971e-019 	0.117841 	2.33279 	0
-4.95617e-021 	0.000324576 	1.99971e-019 	0.184624 	3.0218 	0
-8.09903e-021 	0.000386443 	1.99971e-019 	0.259549 	4.80215 	0
-8.94607e-021 	0.00039981 	1.99971e-019 	0.254556 	5.17786 	0
-7.6233e-021 	0.000409413 	1.99971e-019 	0.234371 	5.56062 	0
-3.38813e-021 	0.000474922 	1.99971e-019 	0.322773 	8.29661 	0
-1.29248e-020 	0.000525915 	1.99971e-019 	0.26728 	11.1535 	0
-1.35525e-020 	0.000545077 	1.99971e-019 	0.279819 	12.2447 	0
-1.39213e-020 	0.000577816 	1.99971e-019 	0.234636 	14.2014 	0
-1.52466e-020 	0.000613877 	1.99971e-019 	0.178009 	16.3621 	0
-1.69407e-020 	0.000636855 	1.99971e-019 	0.161415 	17.5439 	0
-2.03288e-020 	0.000680922 	1.99971e-019 	0.0769345 	19.8174 	0
-2.11758e-020 	0.000744184 	1.99971e-019 	0.15602 	22.597 	0
-2.15993e-020 	0.000747971 	1.99971e-019 	0.140122 	22.768 	0
-2.07523e-020 	0.000754798 	1.99971e-019 	0.132842 	23.0601 	0
-2.37169e-020 	0.000812401 	1.99971e-019 	0.203207 	25.5927 	0
-2.44515e-020 	0.000841573 	1.99971e-019 	0.354801 	26.977 	0
-2.82213e-020 	0.000874088 	1.99971e-019 	0.284909 	28.5815 	0
-2.89624e-020 	0.0009338 	1.99971e-019 	0.4163 	31.8467 	0
-2.89326e-020 	0.000934775 	1.99971e-019 	0.411016 	31.9038 	0
-2.8905e-020 	0.000936905 	1.99971e-019 	0.409087 	32.0399 	0
-2.82237e-020 	0.000994329 	1.99971e-019 	0.486696 	35.8412 	0
-2.99177e-020 	0.00102109 	1.99971e-019 	0.635828 	37.7676 	0
-3.28103e-020 	0.00105169 	1.99971e-019 	0.569811 	40.0866 	0
-3.59866e-020 	0.00110517 	1.99971e-019 	0.695072 	44.3217 	0
-3.58085e-020 	0.00110764 	1.99971e-019 	0.683454 	44.5291 	0
-3.62107e-020 	0.00111255 	1.99971e-019 	0.680921 	44.9561 	0
-3.53024e-020 	0.00116181 	1.99971e-019 	0.769761 	49.3941 	0
-3.53024e-020 	0.00118635 	1.99971e-019 	0.887102 	51.6889 	0
-4.04544e-020 	0.00121509 	1.99971e-019 	0.82673 	54.486 	0
-4.55366e-020 	0.00126354 	1.99971e-019 	0.937682 	59.3669 	0
-4.5688e-020 	0.00126595 	1.99971e-019 	0.935464 	59.6242 	0
-4.61633e-020 	0.00127065 	1.99971e-019 	0.928951 	60.1138 	0
-4.40484e-020 	0.00131575 	1.99971e-019 	0.949873 	64.9978 	0
-4.57425e-020 	0.00133853 	1.99971e-019 	0.971867 	67.5179 	0
-4.60365e-020 	0.00136471 	1.99971e-019 	0.878826 	70.447 	0
-4.85776e-020 	0.00141004 	1.99971e-019 	0.924201 	75.7705 	0
-4.87829e-020 	0.00141176 	1.99971e-019 	0.914919 	75.9886 	0
-4.87044e-020 	0.00141533 	1.99971e-019 	0.914495 	76.4127 	0
-4.78399e-020 	0.00145799 	1.99971e-019 	0.890771 	81.6298 	0
-4.78399e-020 	0.00147866 	1.99971e-019 	0.898101 	84.1409 	0
-4.81103e-020 	0.00150232 	1.99971e-019 	0.836831 	87.0721 	0
-5.10749e-020 	0.00154483 	1.99971e-019 	0.844282 	92.3627 	0
-5.12294e-020 	0.00154543 	1.99971e-019 	0.842733 	92.4388 	0
-5.12455e-020 	0.00154657 	1.99971e-019 	0.840955 	92.5853 	0
-5.27756e-020 	0.00158764 	1.99971e-019 	0.811972 	97.9506 	0
-5.36226e-020 	0.00160878 	1.99971e-019 	0.811881 	100.723 	0
-5.51794e-020 	0.00162912 	1.99971e-019 	0.723475 	103.432 	0
-5.80218e-020 	0.00166732 	1.99971e-019 	0.704092 	108.605 	0
-5.80218e-020 	0.00166886 	1.99971e-019 	0.703377 	108.815 	0
-5.79159e-020 	0.00166968 	1.99971e-019 	0.704308 	108.928 	0
-5.61955e-020 	0.00170776 	1.99971e-019 	0.648888 	114.256 	0
-5.36544e-020 	0.00172866 	1.99971e-019 	0.640687 	117.196 	0
-5.20092e-020 	0.00174596 	1.99971e-019 	0.555288 	119.65 	0
-5.20925e-020 	0.0017779 	1.99971e-019 	0.542116 	124.303 	0
-5.2516e-020 	0.00178256 	1.99971e-019 	0.54006 	124.983 	0
-5.2516e-020 	0.00178505 	1.99971e-019 	0.543909 	125.351 	0
-5.26435e-020 	0.00181855 	1.99971e-019 	0.494355 	130.365 	0
-5.43376e-020 	0.00184057 	1.99971e-019 	0.521774 	133.721 	0
-5.24645e-020 	0.00185358 	1.99971e-019 	0.499153 	135.711 	0
-5.33631e-020 	0.0018797 	1.99971e-019 	0.424636 	139.817 	0
-5.44743e-020 	0.00188773 	1.99971e-019 	0.41737 	141.082 	0
-5.53214e-020 	0.00189168 	1.99971e-019 	0.425913 	141.72 	0
-5.4663e-020 	0.00192066 	1.99971e-019 	0.37809 	146.466 	0
-5.551e-020 	0.00194082 	1.99971e-019 	0.391717 	149.827 	0
-5.56148e-020 	0.00195274 	1.99971e-019 	0.35172 	151.825 	0
-5.2516e-020 	0.00197421 	1.99971e-019 	0.3428 	155.531 	0
-5.25717e-020 	0.00198403 	1.99971e-019 	0.350227 	157.224 	0
-5.17246e-020 	0.00198941 	1.99971e-019 	0.364134 	158.175 	0
-5.1242e-020 	0.00201476 	1.99971e-019 	0.273852 	162.668 	0
-5.2089e-020 	0.00203493 	1.99971e-019 	0.268424 	166.366 	0
-5.16805e-020 	0.00204453 	1.99971e-019 	0.220981 	168.137 	0
-5.20925e-020 	0.00206227 	1.99971e-019 	0.194385 	171.548 	0
-5.1669e-020 	0.00207317 	1.99971e-019 	0.195384 	173.636 	0
-5.1669e-020 	0.00207923 	1.99971e-019 	0.217289 	174.836 	0
-5.27189e-020 	0.00210118 	1.99971e-019 	0.17698 	179.177 	0
-5.14483e-020 	0.00212297 	1.99971e-019 	-1.31577 	181.339 	0
-5.17263e-020 	0.00212849 	1.99971e-019 	0.17361 	184.771 	0
-5.1669e-020 	0.00213857 	1.99971e-019 	0.231118 	186.643 	0
-5.11911e-020 	0.00215502 	1.99971e-019 	0.738228 	190.307 	0
-5.0344e-020 	0.00216369 	1.99971e-019 	1.34213 	194.012 	0
-5.16856e-020 	0.00218091 	1.99971e-019 	0.705112 	196.038 	0
-5.0415e-020 	0.00220231 	1.99971e-019 	-1.73445 	198.436 	0
-5.01013e-020 	0.00220628 	1.99971e-019 	-3.01407 	202.514 	0
-4.99749e-020 	0.0022138 	1.99971e-019 	0.020882 	203.921 	0
-5.02753e-020 	0.00223081 	1.99971e-019 	0.55518 	207.715 	0
-4.94282e-020 	0.00224032 	1.99971e-019 	-0.0997658 	209.825 	0
-5.17846e-020 	0.00225455 	1.99971e-019 	-1.46816 	214.013 	0
-5.24199e-020 	0.00227622 	1.99971e-019 	-0.890854 	217.957 	0
-5.20641e-020 	0.00227809 	1.99971e-019 	-1.5652 	220.085 	0
-5.18808e-020 	0.00228155 	1.99971e-019 	-1.04794 	224.082 	0
-5.2516e-020 	0.00230055 	1.99971e-019 	0.198824 	225.881 	0
-5.2516e-020 	0.00231126 	1.99971e-019 	0.755121 	229.916 	0
-5.252e-020 	0.00232249 	1.99971e-019 	-1.99488 	232.472 	0
-5.21984e-020 	0.00234187 	1.99971e-019 	1.28455 	233.993 	0
-5.19136e-020 	0.00234404 	1.99971e-019 	1.85915 	238.06 	0
-5.21254e-020 	0.00234526 	1.99971e-019 	2.52629 	242.187 	0
-5.2235e-020 	0.00236485 	1.99971e-019 	1.74794 	244.455 	0
-5.35056e-020 	0.00237739 	1.99971e-019 	-1.06489 	247.16 	0
-5.40496e-020 	0.00238521 	1.99971e-019 	-2.6518 	251.741 	0
-5.46336e-020 	0.00240097 	1.99971e-019 	1.08894 	253.235 	0
-5.43193e-020 	0.00240496 	1.99971e-019 	1.77235 	257.44 	0
-5.43193e-020 	0.00240707 	1.99971e-019 	2.55104 	261.805 	0
-5.2116e-020 	0.0024257 	1.99971e-019 	1.9096 	264.213 	0
-5.33866e-020 	0.00243488 	1.99971e-019 	0.577097 	269.069 	0
-5.31997e-020 	0.00244358 	1.99971e-019 	-2.17899 	271.83 	0
-5.20925e-020 	0.00245791 	1.99971e-019 	0.44434 	275.857 	0
-5.17955e-020 	0.00246134 	1.99971e-019 	1.81272 	277.797 	0
-5.15837e-020 	0.0024634 	1.99971e-019 	2.48146 	282.282 	0
-5.17495e-020 	0.00247897 	1.99971e-019 	1.69362 	284.707 	0
-5.17495e-020 	0.00249024 	1.99971e-019 	-1.24957 	287.616 	0
-5.21023e-020 	0.00249621 	1.99971e-019 	-2.93006 	292.552 	0
-5.10337e-020 	0.00250679 	1.99971e-019 	0.821432 	294.35 	0
-5.11683e-020 	0.00251298 	1.99971e-019 	1.51681 	298.993 	0
-5.07448e-020 	0.00251644 	1.99971e-019 	2.32471 	303.757 	0
-5.15314e-020 	0.00252957 	1.99971e-019 	1.47628 	306.375 	0
-5.11079e-020 	0.00254166 	1.99971e-019 	-1.7523 	309.47 	0
-5.22259e-020 	0.00254543 	1.99971e-019 	-3.26233 	314.737 	0
-5.1669e-020 	0.00255292 	1.99971e-019 	0.566366 	316.461 	0
-5.14908e-020 	0.00256094 	1.99971e-019 	1.25112 	321.362 	0
-5.10673e-020 	0.00256523 	1.99971e-019 	0.444435 	324.1 	0
-5.09501e-020 	0.00257596 	1.99971e-019 	-1.08171 	329.45 	0
-5.0822e-020 	0.00258717 	1.99971e-019 	-0.333845 	334.538 	0
-5.07306e-020 	0.00259056 	1.99971e-019 	-1.17718 	337.183 	0
-5.01867e-020 	0.00259682 	1.99971e-019 	-0.553343 	342.415 	0
-5.05917e-020 	0.00260497 	1.99971e-019 	1.05063 	344.725 	0
-5.10152e-020 	0.00260958 	1.99971e-019 	1.76052 	349.957 	0
-5.16374e-020 	0.00261874 	1.99971e-019 	0.814563 	352.768 	0
-5.14257e-020 	0.00263091 	1.99971e-019 	-2.66772 	356.071 	0
-5.16184e-020 	0.00263224 	1.99971e-019 	-4.72282 	361.754 	0
-5.15631e-020 	0.00263447 	1.99971e-019 	-0.452116 	363.891 	0
-5.15941e-020 	0.00264536 	1.99971e-019 	0.23779 	369.24 	0
-5.11706e-020 	0.00265172 	1.99971e-019 	-0.697789 	372.219 	0
-5.18329e-020 	0.00265813 	1.99971e-019 	-2.70044 	378.052 	0
-5.16161e-020 	0.00266994 	1.99971e-019 	1.75765 	380.247 	0
-5.16161e-020 	0.00267076 	1.99971e-019 	2.53526 	385.769 	0
-5.16161e-020 	0.00267123 	1.99971e-019 	3.27823 	391.467 	0
-5.1669e-020 	0.00268287 	1.99971e-019 	-0.549951 	395.016 	0
-5.20925e-020 	0.00269036 	1.99971e-019 	0.18803 	400.821 	0
-5.22175e-020 	0.00269466 	1.99971e-019 	-3.65811 	404.4 	0
-5.2516e-020 	0.0027024 	1.99971e-019 	0.964463 	406.672 	0
-5.26373e-020 	0.00270627 	1.99971e-019 	1.77393 	412.494 	0
-5.26373e-020 	0.00270844 	1.99971e-019 	2.61983 	418.456 	0
-5.13663e-020 	0.00271745 	1.99971e-019 	1.62445 	421.665 	0
-5.1578e-020 	0.00272578 	1.99971e-019 	-2.22383 	425.455 	0
-5.15532e-020 	0.00272834 	1.99971e-019 	-4.428 	431.912 	0
-5.14573e-020 	0.00273244 	1.99971e-019 	-0.948081 	437.664 	0
-5.12455e-020 	0.00273891 	1.99971e-019 	0.889546 	440.45 	0
-5.18808e-020 	0.00274291 	1.99971e-019 	1.599 	446.755 	0
-5.23416e-020 	0.00274927 	1.99971e-019 	-2.65187 	450.662 	0
-5.24739e-020 	0.00275926 	1.99971e-019 	-3.80154 	454.161 	0
-5.29206e-020 	0.00276931 	1.99971e-019 	-0.500578 	470.265 	0
-5.29396e-020 	0.00277494 	1.99971e-019 	-1.61036 	473.933 	0
-5.2516e-020 	0.00277899 	1.99971e-019 	-0.607345 	480.665 	0
-5.26219e-020 	0.00278759 	1.99971e-019 	1.72283 	483.651 	0
-5.25672e-020 	0.00278837 	1.99971e-019 	2.95722 	490.287 	0
-5.25143e-020 	0.00278873 	1.99971e-019 	4.02658 	497.097 	0
-5.2268e-020 	0.00279736 	1.99971e-019 	3.00313 	500.788 	0
-5.24797e-020 	0.00280212 	1.99971e-019 	-1.29601 	505.265 	0
-5.32308e-020 	0.00280615 	1.99971e-019 	-3.7021 	512.785 	0
-5.35748e-020 	0.00281288 	1.99971e-019 	1.54692 	515.547 	0
-5.3305e-020 	0.00281481 	1.99971e-019 	2.50575 	522.67 	0
-5.35168e-020 	0.00281594 	1.99971e-019 	1.27987 	526.693 	0
-5.29183e-020 	0.00282325 	1.99971e-019 	-1.15068 	534.616 	0
-5.27065e-020 	0.00282909 	1.99971e-019 	-0.238703 	542.085 	0
-5.27788e-020 	0.00283153 	1.99971e-019 	-1.43442 	546.103 	0
-5.28337e-020 	0.00283574 	1.99971e-019 	-0.603075 	553.812 	0
-5.27278e-020 	0.00283947 	1.99971e-019 	1.53339 	557.285 	0
-5.29396e-020 	0.00284177 	1.99971e-019 	2.42257 	565.201 	0
-5.32078e-020 	0.0028473 	1.99971e-019 	-2.45254 	570.13 	0
-5.35784e-020 	0.00285426 	1.99971e-019 	-3.74039 	574.53 	0
-5.36265e-020 	0.00285497 	1.99971e-019 	-2.99711 	582.808 	0
-5.36807e-020 	0.00285619 	1.99971e-019 	-0.483578 	586.557 	0
-5.32793e-020 	0.00286248 	1.99971e-019 	0.713759 	594.763 	0
-5.31513e-020 	0.0028657 	1.99971e-019 	1.93554 	602.892 	0
-5.2996e-020 	0.00286952 	1.99971e-019 	-1.83925 	607.215 	0
-5.30454e-020 	0.00287533 	1.99971e-019 	0.764613 	615.722 	0
-5.32226e-020 	0.00287656 	1.99971e-019 	3.04555 	619.63 	0
-5.31167e-020 	0.0028774 	1.99971e-019 	4.54864 	628.586 	0
-5.26813e-020 	0.00288383 	1.99971e-019 	3.7048 	633.62 	0
-5.28931e-020 	0.00288722 	1.99971e-019 	-1.21233 	639.491 	0
-5.33804e-020 	0.00289058 	1.99971e-019 	-3.94749 	649.055 	0
-5.3416e-020 	0.00289598 	1.99971e-019 	2.0622 	652.71 	0
-5.33593e-020 	0.00289724 	1.99971e-019 	3.03254 	662.046 	0
-5.33593e-020 	0.00289802 	1.99971e-019 	1.68309 	667.296 	0
-5.31311e-020 	0.00290378 	1.99971e-019 	2.68266 	676.929 	0
-5.37664e-020 	0.00290827 	1.99971e-019 	-0.0732564 	687.717 	0
-5.35302e-020 	0.00291019 	1.99971e-019 	-1.47285 	693.05 	0
-5.37866e-020 	0.00291346 	1.99971e-019 	-0.534738 	703.325 	0
-5.35748e-020 	0.00291639 	1.99971e-019 	1.92445 	707.89 	0
-5.39984e-020 	0.00291816 	1.99971e-019 	2.83827 	718.437 	0
-5.39984e-020 	0.00292249 	1.99971e-019 	-2.80878 	724.877 	0
-5.36807e-020 	0.0029281 	1.99971e-019 	-1.86343 	736 	0
-5.37337e-020 	0.00292857 	1.99971e-019 	-7.67368 	742.513 	0
-5.37982e-020 	0.00292934 	1.99971e-019 	-2.55192 	753.405 	0
-5.37866e-020 	0.00293455 	1.99971e-019 	3.95577 	757.713 	0
-5.35748e-020 	0.00293792 	1.99971e-019 	0.789447 	770.46 	0
-5.31513e-020 	0.00294038 	1.99971e-019 	-4.95844 	777.607 	0
-5.31513e-020 	0.00294413 	1.99971e-019 	1.61718 	782.495 	0
-5.29396e-020 	0.00294614 	1.99971e-019 	6.70314 	793.218 	0
-5.30454e-020 	0.00294737 	1.99971e-019 	3.54397 	806.848 	0
-5.29396e-020 	0.00295171 	1.99971e-019 	-2.49548 	814.9 	0
-5.31513e-020 	0.00295648 	1.99971e-019 	-4.19569 	821.99 	0
-5.32572e-020 	0.00295719 	1.99971e-019 	-3.31788 	834.937 	0
-5.32091e-020 	0.00295827 	1.99971e-019 	-2.41487 	848.411 	0
-5.3368e-020 	0.00296264 	1.99971e-019 	0.289752 	854.42 	0
-5.3368e-020 	0.0029654 	1.99971e-019 	1.27604 	868.491 	0
-5.37014e-020 	0.002968 	1.99971e-019 	-4.75884 	877.333 	0
-5.39984e-020 	0.00297217 	1.99971e-019 	0.549278 	891.106 	0
-5.39734e-020 	0.00297356 	1.99971e-019 	3.13608 	898.106 	0
-5.40793e-020 	0.00297455 	1.99971e-019 	1.3121 	906.919 	0
-5.41659e-020 	0.00297924 	1.99971e-019 	2.01932 	923.186 	0
-5.39012e-020 	0.0029846 	1.99971e-019 	-4.21349 	933.382 	0
-5.39454e-020 	0.00298513 	1.99971e-019 	-3.9472 	950.731 	0
-5.39454e-020 	0.00298558 	1.99971e-019 	-1.86093 	959.731 	0
-5.42101e-020 	0.00299107 	1.99971e-019 	2.02174 	977.862 	0
-5.45562e-020 	0.00299636 	1.99971e-019 	2.08367 	997.111 	0
-5.45297e-020 	0.00299676 	1.99971e-019 	4.17416 	1006.21 	0
-5.42483e-020 	0.00300259 	1.99971e-019 	-0.651865 	1038.23 	0
-5.40365e-020 	0.003007 	1.99971e-019 	-0.533288 	1061.6 	0
-5.42552e-020 	0.00300912 	1.99971e-019 	-1.50617 	1073.4 	0
-5.36592e-020 	0.00301185 	1.99971e-019 	-1.24069 	1101.96 	0
-5.34475e-020 	0.00301655 	1.99971e-019 	-0.306855 	1114.47 	0
-5.32357e-020 	0.00302036 	1.99971e-019 	-0.873666 	1141.51 	0
-5.30001e-020 	0.00302411 	1.99971e-019 	-0.565232 	1157.81 	0
-5.29762e-020 	0.00302764 	1.99971e-019 	-1.08858 	1180.45 	0
-5.25527e-020 	0.0030309 	1.99971e-019 	-2.00374 	1194.26 	0
-5.2288e-020 	0.00303714 	1.99971e-019 	-1.73112 	1226.21 	0
-5.23151e-020 	0.00303837 	1.99971e-019 	-0.809515 	1232.53 	0
-5.23572e-020 	0.00303881 	1.99971e-019 	1.63155 	1249.74 	0
-5.24631e-020 	0.00304009 	1.99971e-019 	0.0690646 	1262.5 	0
-5.2516e-020 	0.00304859 	1.99971e-019 	-6.88683 	1297.7 	0
-5.30082e-020 	0.00305358 	1.99971e-019 	-3.83825 	1334.84 	0
-5.2911e-020 	0.00305788 	1.99971e-019 	9.50775 	1356.62 	0
-5.29396e-020 	0.00306216 	1.99971e-019 	2.96539 	1389.96 	0
-5.29396e-020 	0.00306755 	1.99971e-019 	-17.1929 	1405.88 	0
-5.27849e-020 	0.00307195 	1.99971e-019 	-0.922149 	1427.8 	0
-5.37866e-020 	0.0030783 	1.99971e-019 	-1.15205 	1466.97 	0
-5.30454e-020 	0.00308755 	1.99971e-019 	-12.0052 	1484.97 	0
-5.30454e-020 	0.00308954 	1.99971e-019 	-43.348 	1526.12 	0
-5.30454e-020 	0.00309082 	1.99971e-019 	-12.0908 	1544.36 	0
-5.29396e-020 	0.0031015 	1.99971e-019 	9.31254 	1584.61 	0
-5.29396e-020 	0.0031101 	1.99971e-019 	1.70285 	1620.32 	0
-5.33631e-020 	0.00311354 	1.99971e-019 	15.392 	1640.37 	0
-5.38577e-020 	0.00311859 	1.99971e-019 	12.7372 	1675.82 	0
-5.54807e-020 	0.00312652 	1.99971e-019 	-41.3207 	1688.81 	0
-5.51282e-020 	0.00313245 	1.99971e-019 	5.43469 	1709.86 	0
-5.49951e-020 	0.00314016 	1.99971e-019 	2.78156 	1742.41 	0
-5.5621e-020 	0.00315155 	1.99971e-019 	-20.2192 	1757.42 	0
-5.59042e-020 	0.00315462 	1.99971e-019 	-28.5418 	1789.86 	0
-5.59042e-020 	0.00315668 	1.99971e-019 	-13.3788 	1807.72 	0
-5.50571e-020 	0.00316955 	1.99971e-019 	-20.9384 	1840.94 	0
-5.64336e-020 	0.00318075 	1.99971e-019 	45.4389 	1862.29 	0
-5.64336e-020 	0.00318165 	1.99971e-019 	80.4108 	1900.54 	0
-5.68357e-020 	0.00319845 	1.99971e-019 	82.1211 	1913.37 	0
-5.84453e-020 	0.00321793 	1.99971e-019 	-3.80638 	1959.81 	0
-5.75982e-020 	0.00322905 	1.99971e-019 	9.08179 	1985.89 	0
-5.67512e-020 	0.00323704 	1.99971e-019 	-69.0464 	2011.64 	0
-5.72464e-020 	0.00324926 	1.99971e-019 	0.31637 	2031.03 	0
-5.67077e-020 	0.00325701 	1.99971e-019 	33.2748 	2041.73 	0
-5.65382e-020 	0.00326282 	1.99971e-019 	10.708 	2055.59 	0
-5.75982e-020 	0.00327708 	1.99971e-019 	-31.3355 	2080.65 	0
-5.7413e-020 	0.00329315 	1.99971e-019 	32.0725 	2094.89 	0
-5.736e-020 	0.00329351 	1.99971e-019 	105.386 	2104.26 	0
-5.736e-020 	0.00329535 	1.99971e-019 	20.8194 	2128.31 	0
-5.80218e-020 	0.00331581 	1.99971e-019 	-27.2086 	2132.98 	0
-5.75982e-020 	0.00331817 	1.99971e-019 	10.7108 	2139.63 	0
-5.71747e-020 	0.00332285 	1.99971e-019 	-25.4615 	2157.33 	0
-5.84453e-020 	0.00334525 	1.99971e-019 	12.8385 	2164.97 	0
-5.92923e-020 	0.0033595 	1.99971e-019 	-14.2767 	2176.07 	0
-5.75982e-020 	0.00337086 	1.99971e-019 	-60.3027 	2196.97 	0
-5.84413e-020 	0.00338887 	1.99971e-019 	14.4663 	2216.18 	0
-5.89322e-020 	0.00339724 	1.99971e-019 	48.6628 	2225.05 	0
-5.97648e-020 	0.00340253 	1.99971e-019 	13.6194 	2231.12 	0
-6.10354e-020 	0.0034245 	1.99971e-019 	17.0373 	2254.69 	0
-6.01393e-020 	0.00344625 	1.99971e-019 	18.8213 	2274.81 	0
-6.09864e-020 	0.0034527 	1.99971e-019 	18.479 	2280.69 	0
-6.00398e-020 	0.00346313 	1.99971e-019 	19.2186 	2289.03 	0
-6.00044e-020 	0.00348099 	1.99971e-019 	15.7292 	2303.26 	0
-6.02499e-020 	0.00348961 	1.99971e-019 	14.4122 	2311.04 	0
-5.94029e-020 	0.00351079 	1.99971e-019 	12.9239 	2329.56 	0
-5.97e-020 	0.00352632 	1.99971e-019 	19.6555 	2340.62 	0
-5.84453e-020 	0.00354165 	1.99971e-019 	43.4612 	2346.71 	0
-5.92923e-020 	0.00355262 	1.99971e-019 	16.4899 	2355.38 	0
-5.60582e-020 	0.00357199 	1.99971e-019 	11.3466 	2367.14 	0
-5.41354e-020 	0.00358969 	1.99971e-019 	5.90827 	2378.98 	0
-5.32883e-020 	0.00360407 	1.99971e-019 	6.94771 	2386.43 	0
-5.37118e-020 	0.00362994 	1.99971e-019 	8.63544 	2399.44 	0
-5.42101e-020 	0.00364023 	1.99971e-019 	8.86209 	2404.07 	0
-5.49972e-020 	0.0036493 	1.99971e-019 	7.31004 	2409.9 	0
-5.58442e-020 	0.00367854 	1.99971e-019 	8.76144 	2427.2 	0
-5.65385e-020 	0.00371543 	1.99971e-019 	8.27517 	2442.63 	0
-5.6962e-020 	0.00371707 	1.99971e-019 	8.34022 	2443.19 	0
-5.65385e-020 	0.00371948 	1.99971e-019 	8.46961 	2443.66 	0
-5.85449e-020 	0.00375537 	1.99971e-019 	11.4397 	2449.6 	0
-5.64793e-020 	0.00377958 	1.99971e-019 	17.7908 	2458.07 	0
-5.73263e-020 	0.00379456 	1.99971e-019 	21.3513 	2462.85 	0
-5.81734e-020 	0.00382285 	1.99971e-019 	19.9217 	2480.55 	0
-5.92923e-020 	0.00383554 	1.99971e-019 	17.2302 	2488.11 	0
-5.88688e-020 	0.00384198 	1.99971e-019 	16.659 	2490.42 	0
-5.76838e-020 	0.00387751 	1.99971e-019 	16.1825 	2502.79 	0
-5.59042e-020 	0.00391392 	1.99971e-019 	12.4664 	2507.12 	0
-5.40665e-020 	0.00392118 	1.99971e-019 	12.8119 	2507.7 	0
-5.40665e-020 	0.00393146 	1.99971e-019 	14.0425 	2509.64 	0
-5.58864e-020 	0.00396591 	1.99971e-019 	14.3531 	2515.9 	0
-5.66433e-020 	0.00399101 	1.99971e-019 	15.6496 	2527.93 	0
-5.59042e-020 	0.00401116 	1.99971e-019 	18.6204 	2537.33 	0
-5.33631e-020 	0.00403943 	1.99971e-019 	19.1286 	2547.68 	0
-5.2516e-020 	0.00405743 	1.99971e-019 	18.7132 	2554.03 	0
-4.99749e-020 	0.00407155 	1.99971e-019 	18.239 	2555.08 	0
-4.91279e-020 	0.00410514 	1.99971e-019 	17.8476 	2557.53 	0
-4.74338e-020 	0.00414503 	1.99971e-019 	17.5882 	2560.26 	0
-4.74338e-020 	0.00415449 	1.99971e-019 	17.0081 	2560.73 	0
-4.76839e-020 	0.0041618 	1.99971e-019 	16.5207 	2562.89 	0
-4.40457e-020 	0.00420483 	1.99971e-019 	14.7442 	2577.2 	0
-4.56965e-020 	0.00424995 	1.99971e-019 	7.69372 	2592.76 	0
-4.48927e-020 	0.00425644 	1.99971e-019 	7.39339 	2594.43 	0
-4.48494e-020 	0.0042654 	1.99971e-019 	8.14609 	2596.02 	0
-4.48178e-020 	0.00431001 	1.99971e-019 	10.314 	2603.78 	0
-4.40457e-020 	0.00434086 	1.99971e-019 	8.92844 	2605.13 	0
-4.24622e-020 	0.00436392 	1.99971e-019 	6.60988 	2607.85 	0
-4.41563e-020 	0.00439882 	1.99971e-019 	7.17323 	2612.02 	0
-4.33011e-020 	0.00441993 	1.99971e-019 	5.82822 	2614.85 	0
-4.26299e-020 	0.00443467 	1.99971e-019 	6.40634 	2618.88 	0
-4.17829e-020 	0.004477 	1.99971e-019 	6.28377 	2627.33 	0
-4.20467e-020 	0.00452949 	1.99971e-019 	4.80342 	2639.78 	0
-4.24703e-020 	0.00453468 	1.99971e-019 	4.96003 	2640.99 	0
-4.15046e-020 	0.00454323 	1.99971e-019 	4.96288 	2641.57 	0
-4.06576e-020 	0.00459466 	1.99971e-019 	5.25606 	2644.14 	0
-3.89635e-020 	0.00462431 	1.99971e-019 	2.40112 	2648.1 	0
-3.72694e-020 	0.00465686 	1.99971e-019 	3.07213 	2652.43 	0
-3.61386e-020 	0.00471098 	1.99971e-019 	4.44122 	2664.2 	0
-3.64224e-020 	0.0047204 	1.99971e-019 	4.67919 	2666.24 	0
-3.64224e-020 	0.00472651 	1.99971e-019 	4.61341 	2666.77 	0
-3.5612e-020 	0.00478595 	1.99971e-019 	6.69473 	2670.22 	0
-3.46395e-020 	0.00483473 	1.99971e-019 	6.20321 	2673.57 	0
-3.46395e-020 	0.00485284 	1.99971e-019 	6.99302 	2674.95 	0
-3.63336e-020 	0.00487836 	1.99971e-019 	8.7811 	2679.94 	0
-3.38813e-020 	0.00491845 	1.99971e-019 	10.1896 	2687.45 	0
-3.38813e-020 	0.00494948 	1.99971e-019 	10.8914 	2692.38 	0
-3.5527e-020 	0.00498709 	1.99971e-019 	12.0662 	2697.77 	0
-3.72694e-020 	0.00504715 	1.99971e-019 	11.9307 	2704.07 	0
-3.71967e-020 	0.0050579 	1.99971e-019 	11.678 	2705.08 	0
-3.65448e-020 	0.00506454 	1.99971e-019 	11.5194 	2705.67 	0
-3.48507e-020 	0.0051293 	1.99971e-019 	12.3489 	2710.46 	0
-3.21873e-020 	0.00518409 	1.99971e-019 	12.2206 	2715.19 	0
-2.97315e-020 	0.00520192 	1.99971e-019 	12.7876 	2716.47 	0
-3.14256e-020 	0.00522761 	1.99971e-019 	13.2554 	2718.47 	0
-3.15911e-020 	0.00527549 	1.99971e-019 	13.4139 	2721.66 	0
-2.68486e-020 	0.00530987 	1.99971e-019 	13.2745 	2723.73 	0
-2.85427e-020 	0.00535006 	1.99971e-019 	15.5502 	2725.48 	0
-2.26135e-020 	0.00540823 	1.99971e-019 	17.4962 	2728.19 	0
-2.29942e-020 	0.00542646 	1.99971e-019 	17.724 	2728.69 	0
-2.36675e-020 	0.00544013 	1.99971e-019 	17.7228 	2729.54 	0
-2.28204e-020 	0.00550317 	1.99971e-019 	19.2348 	2732.88 	0
-2.68815e-020 	0.0055733 	1.99971e-019 	21.0822 	2741.8 	0
-2.6458e-020 	0.00557849 	1.99971e-019 	21.1372 	2742.33 	0
-2.56109e-020 	0.00558663 	1.99971e-019 	21.2526 	2743.12 	0
-2.29348e-020 	0.00566061 	1.99971e-019 	20.3381 	2749.73 	0
-2.4825e-020 	0.00570937 	1.99971e-019 	20.9434 	2752.36 	0
-2.99072e-020 	0.00574368 	1.99971e-019 	20.9135 	2753.69 	0
-2.65191e-020 	0.0058034 	1.99971e-019 	19.5631 	2755.13 	0
-2.62239e-020 	0.0058296 	1.99971e-019 	17.5884 	2755.9 	0
-2.65356e-020 	0.00584307 	1.99971e-019 	16.8366 	2756.32 	0
-2.06064e-020 	0.005917 	1.99971e-019 	13.7107 	2761.3 	0
-1.65613e-020 	0.00597959 	1.99971e-019 	14.063 	2767.57 	0
-1.99495e-020 	0.00600655 	1.99971e-019 	14.358 	2770.02 	0
-1.82554e-020 	0.00604936 	1.99971e-019 	15.3927 	2774.09 	0
-1.69407e-020 	0.00609805 	1.99971e-019 	16.098 	2779.6 	0
-2.20229e-020 	0.00612925 	1.99971e-019 	15.1169 	2782.63 	0
-2.24076e-020 	0.00618859 	1.99971e-019 	14.191 	2787.76 	0
-2.49875e-020 	0.00627551 	1.99971e-019 	11.3806 	2790.52 	0
-2.44732e-020 	0.0062806 	1.99971e-019 	11.2191 	2790.44 	0
-2.42439e-020 	0.00628412 	1.99971e-019 	10.9488 	2790.66 	0
-2.17028e-020 	0.00637446 	1.99971e-019 	8.5889 	2793.26 	0
-1.87134e-020 	0.00644402 	1.99971e-019 	6.60393 	2793.4 	0
-1.52466e-020 	0.00646886 	1.99971e-019 	6.45036 	2793.9 	0
-1.18585e-020 	0.00650382 	1.99971e-019 	7.10045 	2795.25 	0
-1.44468e-020 	0.00656419 	1.99971e-019 	7.73697 	2797.05 	0
-8.90892e-021 	0.00660535 	1.99971e-019 	6.47608 	2800.46 	0
-5.52079e-021 	0.00666277 	1.99971e-019 	5.87685 	2803.42 	0
-2.97969e-021 	0.00674917 	1.99971e-019 	7.59728 	2807.76 	0
-5.34007e-021 	0.00676258 	1.99971e-019 	7.87889 	2808.32 	0
-4.23516e-021 	0.00677178 	1.99971e-019 	7.739 	2808.78 	0
-7.84315e-021 	0.00686365 	1.99971e-019 	8.18128 	2811.7 	0
-5.71102e-021 	0.00694537 	1.99971e-019 	10.1953 	2817.05 	0
-6.77626e-021 	0.00696588 	1.99971e-019 	10.7694 	2818.31 	0
-8.47033e-021 	0.00699931 	1.99971e-019 	10.6999 	2819.22 	0
-1.01644e-020 	0.00706998 	1.99971e-019 	9.63173 	2821.34 	0
-9.7582e-021 	0.0071193 	1.99971e-019 	8.70323 	2822.21 	0
-3.38813e-021 	0.00717818 	1.99971e-019 	8.44168 	2823.76 	0
-8.06413e-021 	0.00724663 	1.99971e-019 	12.7046 	2829.02 	0
-1.35525e-020 	0.00729307 	1.99971e-019 	15.0551 	2831.33 	0
-1.69407e-020 	0.00732838 	1.99971e-019 	15.2888 	2832.96 	0
-1.35525e-020 	0.00740118 	1.99971e-019 	15.4896 	2837.66 	0
-1.48231e-020 	0.00750354 	1.99971e-019 	16.8458 	2837.72 	0
-1.45054e-020 	0.00750485 	1.99971e-019 	16.7751 	2837.68 	0
-1.46113e-020 	0.00750616 	1.99971e-019 	16.7866 	2837.72 	0
-2.03288e-020 	0.00761408 	1.99971e-019 	11.2524 	2841.83 	0
-2.38409e-020 	0.00770264 	1.99971e-019 	11.3319 	2846.88 	0
-2.20229e-020 	0.0077274 	1.99971e-019 	10.5619 	2848.62 	0
-1.52466e-020 	0.00776217 	1.99971e-019 	10.6326 	2850.84 	0
-1.54025e-020 	0.00784226 	1.99971e-019 	8.16384 	2856.3 	0
-1.20251e-020 	0.00789847 	1.99971e-019 	9.16565 	2858.51 	0
-1.88014e-020 	0.00795943 	1.99971e-019 	8.87723 	2860.86 	0
-1.01644e-020 	0.00805917 	1.99971e-019 	7.46745 	2859.53 	0
-8.47033e-021 	0.0080778 	1.99971e-019 	6.82442 	2859.65 	0
-9.31736e-021 	0.00808841 	1.99971e-019 	6.42151 	2859.78 	0
-1.35525e-020 	0.00819766 	1.99971e-019 	4.22364 	2863.06 	0
-1.35525e-020 	0.00828765 	1.99971e-019 	4.93568 	2867.65 	0
-1.35525e-020 	0.0083206 	1.99971e-019 	4.79827 	2869.02 	0
-1.3972e-020 	0.00836948 	1.99971e-019 	5.0136 	2870.33 	0
-1.69407e-020 	0.00844587 	1.99971e-019 	3.68767 	2872.05 	0
-2.03288e-020 	0.00850044 	1.99971e-019 	2.33538 	2874.45 	0
-3.11243e-020 	0.0085718 	1.99971e-019 	1.53409 	2876.89 	0
-2.5411e-020 	0.00867336 	1.99971e-019 	2.3739 	2879.29 	0
-2.40831e-020 	0.00869875 	1.99971e-019 	2.3798 	2879.45 	0
-2.3881e-020 	0.00871626 	1.99971e-019 	2.2218 	2879.82 	0
-3.23514e-020 	0.00882731 	1.99971e-019 	2.50548 	2882.26 	0
-2.92701e-020 	0.0089358 	1.99971e-019 	3.99845 	2886.06 	0
-3.04932e-020 	0.00895736 	1.99971e-019 	4.30076 	2886.83 	0
-3.72694e-020 	0.00898846 	1.99971e-019 	4.78299 	2887.47 	0
-4.00383e-020 	0.00908923 	1.99971e-019 	4.58685 	2889.59 	0
-4.22963e-020 	0.00915905 	1.99971e-019 	4.06341 	2891.2 	0
-3.89081e-020 	0.00922209 	1.99971e-019 	3.70829 	2892.57 	0
-4.73785e-020 	0.00931334 	1.99971e-019 	7.32783 	2894.93 	0
-4.7806e-020 	0.00935617 	1.99971e-019 	8.40461 	2897.1 	0
-4.7042e-020 	0.00938538 	1.99971e-019 	9.08285 	2897.44 	0
-4.7042e-020 	0.00948914 	1.99971e-019 	9.45957 	2903.94 	0
-5.56251e-020 	0.00961783 	1.99971e-019 	14.5158 	2911.17 	0
-5.56251e-020 	0.0096264 	1.99971e-019 	14.307 	2911.66 	0
-5.59042e-020 	0.00963893 	1.99971e-019 	14.7913 	2912.24 	0
-5.0955e-020 	0.00977075 	1.99971e-019 	12.4892 	2917.75 	0
-5.42101e-020 	0.00984583 	1.99971e-019 	10.9755 	2921.1 	0
-4.74338e-020 	0.0099051 	1.99971e-019 	8.15948 	2922.43 	0
-4.88984e-020 	0.00999915 	1.99971e-019 	10.0787 	2923.48 	0
-4.75149e-020 	0.0100469 	1.99971e-019 	10.0831 	2925.02 	0
-5.0822e-020 	0.0100789 	1.99971e-019 	10.4128 	2925.45 	0
-5.28283e-020 	0.010189 	1.99971e-019 	10.2131 	2926.97 	0
-4.55192e-020 	0.0103203 	1.99971e-019 	11.016 	2928.38 	0
-4.57398e-020 	0.0103343 	1.99971e-019 	10.7438 	2929.09 	0
-4.72133e-020 	0.010355 	1.99971e-019 	10.9462 	2930.06 	0
-3.80486e-020 	0.0104755 	1.99971e-019 	8.4534 	2937.28 	0
-4.74338e-020 	0.0105668 	1.99971e-019 	12.8322 	2938.51 	0
-5.00614e-020 	0.0106236 	1.99971e-019 	14.3048 	2940.8 	0
-4.40457e-020 	0.0107037 	1.99971e-019 	16.4102 	2944.44 	0
-3.72694e-020 	0.0107659 	1.99971e-019 	14.0545 	2947.66 	0
-4.06576e-020 	0.0107982 	1.99971e-019 	13.4099 	2948.26 	0
-3.97731e-020 	0.0109041 	1.99971e-019 	8.1107 	2951.77 	0
-4.06576e-020 	0.0110462 	1.99971e-019 	11.6079 	2957.34 	0
-4.15445e-020 	0.0110645 	1.99971e-019 	12.1312 	2957.82 	0
-3.98505e-020 	0.0110898 	1.99971e-019 	12.8608 	2958.44 	0
-3.95865e-020 	0.0112219 	1.99971e-019 	15.575 	2961.42 	0
-4.0259e-020 	0.0113207 	1.99971e-019 	16.4721 	2956.71 	0
-3.38813e-020 	0.0113758 	1.99971e-019 	18.814 	2954 	0
-3.38813e-020 	0.0114521 	1.99971e-019 	19.0147 	2954.15 	0
-3.72694e-020 	0.0115306 	1.99971e-019 	18.7522 	2954.16 	0
-4.06576e-020 	0.0116138 	1.99971e-019 	21.3681 	2959.49 	0
-3.38813e-020 	0.0116937 	1.99971e-019 	29.8791 	2961.93 	0
-4.06576e-020 	0.0117387 	1.99971e-019 	31.0675 	2963.18 	0
-3.76542e-020 	0.0118508 	1.99971e-019 	31.9281 	2964.76 	0
-4.14085e-020 	0.0119946 	1.99971e-019 	33.0327 	2967.02 	0
-4.10811e-020 	0.0119993 	1.99971e-019 	33.7545 	2966.85 	0
-4.19281e-020 	0.0120047 	1.99971e-019 	34.081 	2966.8 	0
-5.42101e-020 	0.0121618 	1.99971e-019 	38.271 	2957.41 	0
-5.75982e-020 	0.0122967 	1.99971e-019 	38.268 	2954.8 	0
-5.66846e-020 	0.0123343 	1.99971e-019 	43.7791 	2951.81 	0
-5.75982e-020 	0.01238 	1.99971e-019 	47.2315 	2950.73 	0
-5.42101e-020 	0.0125128 	1.99971e-019 	38.6835 	2940.56 	0
-5.8323e-020 	0.0126136 	1.99971e-019 	34.1089 	2935.33 	0
-5.15467e-020 	0.0126879 	1.99971e-019 	47.6856 	2917.15 	0
-5.15467e-020 	0.0127855 	1.99971e-019 	59.4172 	2901.45 	0
-4.74338e-020 	0.0128645 	1.99971e-019 	48.2284 	2878.03 	0
-3.72694e-020 	0.0129256 	1.99971e-019 	33.4035 	2873.26 	0
-2.03288e-020 	0.0130406 	1.99971e-019 	25.0913 	2851.9 	0
-1.35525e-020 	0.0131649 	1.99971e-019 	31.8047 	2844.13 	0
-1.01644e-020 	0.0132032 	1.99971e-019 	34.362 	2833.59 	0
-7.48566e-021 	0.0132348 	1.99971e-019 	30.7176 	2828.87 	0
0 	0.0133598 	1.99971e-019 	8.96045 	2797.25 	0
1.69407e-021 	0.0134772 	1.99971e-019 	18.508 	2798.42 	0
0 	0.0135033 	1.99971e-019 	21.3459 	2797.17 	0
-1.69407e-021 	0.0135282 	1.99971e-019 	16.6482 	2795.43 	0
1.35525e-020 	0.013658 	1.99971e-019 	8.80199 	2771.72 	0
9.4388e-021 	0.0137971 	1.99971e-019 	7.4591 	2739.2 	0
9.4388e-021 	0.013805 	1.99971e-019 	6.75826 	2736.66 	0
8.22698e-021 	0.014 	1.99971e-019 	11.7419 	2703.42 	0
3.62504e-021 	0.0141766 	1.99971e-019 	-9.10015 	2734.58 	0