# rho  FACE_DATA 23640
#  x  y  z  rho
-0.00296834 0.0159323 0 7.44757e-005
0.000794309 0.0100339 0 0.000315762
0.00690979 0.0130745 0 9.58287e-006
0.000158008 0.0018211 0 0.0266799
-0.000662165 0.0113619 0 0.000298755
-0.00203768 0.00587959 0 0.000446371
-0.000220137 0.00748479 0 0.000133958
0.00214531 0.0125841 0 0.000282081
-0.00164167 0.00702341 0 0.000497876
0.00020958 0.00306993 0 0.0010198
4.59799e-005 0.00273939 0 0.0218156
0.00075606 0.00524313 0 0.000279422
0.00107075 0.0257944 0 0.000233089
-0.000458708 0.0115994 0 0.000281087
-0.000900467 0.00350322 0 0.000629309
-0.00222355 0.00655891 0 0.000418324
0.00442703 0.0182294 0 4.22723e-005
7.09705e-005 0.00299924 0 0.014709
-2.45517e-005 0.00292714 0 0.0183506
-0.000543852 0.00394831 0 0.000529658
7.98376e-005 0.00283498 0 0.0210009
0.00510868 0.0124654 0 9.05485e-006
7.37866e-005 0.00284217 0 0.0208108
-0.000122136 0.00287943 0 0.0210878
0.00117211 0.0120328 0 0.000358298
0.000340217 0.00636002 0 0.000182413
-1.62375e-005 0.00331413 0 0.0027217
0.000288499 0.00391811 0 0.000666334
0.00604323 0.0215883 0 2.9574e-005
0.0015748 0.0199438 0 0.000323082
0.000642306 0.0286533 0 0.000195688
-0.000788091 0.000235815 0 0.0666353
8.45076e-005 0.00283429 0 0.0210552
-0.000766033 0.00453527 0 0.000359786
-0.000556446 0.00360452 0 0.000641583
-0.000694613 0.00330261 0 0.000670314
0.00425461 0.0181246 0 4.49306e-005
0.00563158 0.0299784 0 0.000119891
0.00374311 0.0125452 0 1.94585e-005
-0.000168184 0.00269727 0 0.0233074
0.00100487 0.00483203 0 0.000447788
-0.00170325 0.00704586 0 0.00049542
-0.00047461 0.0123053 0 0.000328263
-0.00401905 0.0129379 0 1.75961e-005
0.000128446 0.00148328 0 0.028828
0.000108141 0.00315803 0 0.00347815
0.00299545 0.0176096 0 7.39853e-005
0.00122698 0.00708374 0 0.000350782
0.000214903 0.00307399 0 0.00100008
0.00225142 0.0126586 0 0.000239328
0.000204708 0.00068009 0 0.0572816
4.25297e-005 0.00299727 0 0.0149573
-0.000477288 0.00315875 0 0.000682621
-0.00378992 0.02149 0 9.98616e-005
0.000139812 0.00181138 0 0.0266679
0.000208917 0.00302796 0 0.000790408
-0.00160791 0.0049468 0 0.000572757
0.000941143 0.00995448 0 0.000346528
8.9442e-006 0.010956 0 0.000216975
-0.000434056 0.00133506 0 0.033107
0.000566946 0.0289715 0 0.000190607
-7.40414e-005 0.003214 0 0.00358273
-0.000145493 0.00239699 0 0.0243096
3.42483e-005 0.00298986 0 0.0155119
0.000575544 0.00987125 0 0.000270765
3.71363e-005 0.00299095 0 0.0154563
-0.00247102 0.00772987 0 0.00036915
0.00096928 0.0118325 0 0.000346822
-9.22697e-005 0.00299969 0 0.0133288
-0.000570617 0.0122505 0 0.000313418
-0.000211411 0.00254812 0 0.0243599
-0.000765289 0.00457715 0 0.000355883
8.13068e-005 0.00294139 0 0.0188617
-0.00437678 0.0203082 0 4.59916e-005
0.00226862 0.00661101 0 0.000392805
-0.000832194 0.000220534 0 0.0667178
-0.000164868 0.00301134 0 0.000867031
0.0012393 0.0259768 0 0.0002262
-2.48279e-005 0.00292318 0 0.0185048
0.000116572 0.00245177 0 0.0238902
9.77655e-005 0.00313112 0 0.00409265
0.000279024 0.00328636 0 0.00114362
-5.75605e-005 0.0116355 0 0.000370347
-7.47936e-005 0.0117342 0 0.000368616
0.000518168 0.00993111 0 0.000254433
-0.000154608 0.0030256 0 0.00102071
4.53443e-005 0.00299839 0 0.0148963
-0.000161071 0.0027724 0 0.0226368
0.000104836 0.00293916 0 0.0194008
-0.00100104 0.00361077 0 0.000656262
-0.000510005 0.00921774 0 0.000166362
0.00100295 0.0100141 0 0.000352101
-0.000646084 0.00336418 0 0.000736128
6.96906e-005 0.00293287 0 0.0188805
-1.67264e-005 0.00300289 0 0.0145889
0.000173509 0.0227352 0 0.00031592
3.17037e-005 0.00298455 0 0.0158166
0.000312244 0.00306502 0 0.000718263
-0.00212604 0.00906512 0 0.000449794
-0.00049218 0.00322389 0 0.000735313
0.000341345 0.00323843 0 0.000915925
-0.00385942 0.0216496 0 0.000100132
-0.000125834 0.0028813 0 0.0209954
0.00524627 0.0255212 0 0.000104838
0.000713781 0.0036837 0 0.00069247
0.00601727 0.0299149 0 0.000110835
-0.000344095 0.00203632 0 0.0270256
-0.0047341 0.0239481 0 0.000110309
-0.000460773 0.00539436 0 0.000256114
-0.00196148 0.00905338 0 0.000457234
0.00143807 0.0303782 0 0.000173133
7.94637e-005 0.00293894 0 0.0189199
0.00013473 0.00481908 0 0.000348978
0.00105264 0.00484794 0 0.000480859
0.000112877 0.0030262 0 0.00267304
-0.00781161 0.0282885 0 6.69508e-005
-0.000846622 0.00344471 0 0.000628225
-0.00206201 0.0306837 0 0.000162866
-0.00313594 0.0160362 0 6.78436e-005
0.00144289 0.0198776 0 0.000335397
-0.000135136 0.00286502 0 0.0212604
-0.000205101 0.000950881 0 0.0372943
0.000372212 0.00308853 0 0.000660284
0.000370404 0.000795868 0 0.0494404
0.000201681 0.00347815 0 0.00122336
-0.000147808 0.00278598 0 0.0224154
0.000218103 0.000637733 0 0.0600568
0.000195722 0.00313377 0 0.00147767
-0.00203813 0.00594128 0 0.00045161
0.00112067 0.00510142 0 0.000510515
5.16573e-005 0.00373385 0 0.000958212
0.000381501 0.00336875 0 0.000832373
0.000860715 0.0258401 0 0.000242633
-0.000116556 0.00339842 0 0.00174277
-0.00513668 0.0257477 0 0.000111516
-0.000162894 0.00277847 0 0.0225865
8.27341e-005 0.00277738 0 0.0216958
0.0010674 0.0118759 0 0.000355742
-4.09992e-005 0.00275121 0 0.0216712
3.29665e-005 0.00297369 0 0.0164594
-0.00204547 0.0090065 0 0.000457281
-0.00160474 0.0048986 0 0.000566972
8.25825e-005 0.00294819 0 0.0186511
4.00473e-005 0.00273627 0 0.0218122
-9.41642e-005 0.00295571 0 0.0186721
0.00150619 0.00997327 0 0.000428523
8.22134e-005 0.00268838 0 0.0224484
-0.000160791 0.00267895 0 0.0232753
-0.000596112 0.00909085 0 0.000185455
-9.31423e-005 0.00299701 0 0.0142745
0.00235681 0.0126226 0 0.000225717
0.00203765 0.00557212 0 0.000436977
-0.000165794 0.0115731 0 0.000323422
6.0159e-005 0.0021996 0 0.0247123
0.000371981 0.00362464 0 0.000773155
-0.00733688 0.029685 0 8.90871e-005
-0.000180414 0.00743151 0 0.000134353
-0.000357207 0.004885 0 0.000331211
0.00253943 0.00813968 0 0.000345084
-1.29377e-005 0.00332967 0 0.00268398
-0.0010235 0.00361199 0 0.000644565
-0.000285329 0.0030748 0 0.000763648
-0.000681311 0.00329291 0 0.000650911
-0.00260727 0.00895038 0 0.000340932
0.00788717 0.0276195 0 6.22281e-005
0.0089704 0.0287411 0 4.9763e-005
-0.000270534 0.00232157 0 0.0255109
-0.00014416 0.00312601 0 0.00253432
-0.000337662 0.00201762 0 0.0270671
0.0003962 0.00337513 0 0.000826059
0.00121317 0.00701782 0 0.000348205
0.000116206 0.00302915 0 0.00248233
0.00225197 0.00666935 0 0.000378554
-0.000507665 0.00548922 0 0.000244733
-0.000231863 0.00226746 0 0.0253285
0.000244361 0.00226851 0 0.0254822
0.00111028 0.00505498 0 0.000511188
0.000121223 0.00304184 0 0.00255888
0.00012049 0.00243938 0 0.0239853
-0.0013386 0.0186068 0 0.000355068
0.000102064 0.00149733 0 0.0286486
0.000147362 0.00301363 0 0.000948774
0.00106981 0.0119939 0 0.000357486
-0.000365953 0.00411169 0 0.000543482
0.00557444 0.020358 0 3.1578e-005
4.86089e-005 0.00307386 0 0.00849289
-0.000177413 0.0035472 0 0.00120594
-0.000632994 0.00339325 0 0.000771116
0.000487307 0.00130985 0 0.0343934
-0.000349424 0.00402777 0 0.000587205
-0.00177251 0.00629586 0 0.000497907
-7.92525e-005 0.00273084 0 0.0221019
0.000241714 0.00100077 0 0.0375713
-0.000154516 0.0114773 0 0.000323595
0.00502442 0.0222916 0 4.41815e-005
-0.000166546 0.00272686 0 0.0231069
0.000707598 0.00365891 0 0.000704236
-0.00157418 0.0046046 0 0.000554749
0.000122725 0.00301099 0 0.00130495
0.000172305 0.00324558 0 0.00193076
7.46185e-006 0.00286175 0 0.0199616
0.00533293 0.0140838 0 1.56107e-005
0.00520504 0.0284215 0 0.000125909
-0.00170266 0.00713636 0 0.0005012
4.38765e-005 0.00290514 0 0.0192049
0.00035679 0.0099507 0 0.000169802
0.000120447 0.00300871 0 0.00138999
7.85992e-005 0.00284146 0 0.0208955
0.000146556 0.00306157 0 0.00177097
-0.000265484 0.00230758 0 0.025525
-0.000558184 0.0114136 0 0.000285327
0.000873988 0.011905 0 0.000330192
0.00195145 0.0157285 0 0.000139892
0.000415959 0.00988952 0 0.000182347
0.00204861 0.00551694 0 0.000448704
0.00159497 0.00893937 0 0.00047235
0.00125366 0.00690066 0 0.000371555
-0.000537482 0.00397822 0 0.000515912
-0.00245206 0.00890865 0 0.000377002
-0.00591638 0.015069 0 1.4957e-005
0.00182541 0.0157696 0 0.000153195
-6.39179e-005 0.00274368 0 0.0218477
1.24162e-005 0.00286011 0 0.0200277
0.000785526 0.00520879 0 0.000283882
0.000119132 0.00288179 0 0.0209705
0.000107617 0.00492998 0 0.000342906
-0.000398708 0.00617064 0 0.000190833
-0.00031795 0.000861625 0 0.0404868
-0.0054742 0.0145195 0 1.5179e-005
-0.00050603 0.0093045 0 0.000167496
-0.00281713 0.0160093 0 8.11611e-005
-0.00521587 0.0225645 0 4.49214e-005
0.000631138 0.00410172 0 0.000446794
0.00077675 0.0118594 0 0.000322583
-0.000339893 0.00491785 0 0.000327912
0.000278502 0.0033019 0 0.00112457
-0.000206291 0.0025551 0 0.0243005
0.0015782 0.00885327 0 0.000468515
-0.000601058 0.00917374 0 0.000194281
0.000107852 0.00308374 0 0.00401739
0.000329157 0.00324408 0 0.000949321
-0.000107456 0.0030138 0 0.00294538
0.000995869 0.00478803 0 0.000444123
-0.00176263 0.00715431 0 0.00050023
0.000133123 0.00190024 0 0.0261577
0.00428452 0.0222831 0 9.18714e-005
0.00249322 0.0134845 0 0.000135258
0.000209201 0.00303326 0 0.000808081
1.124e-005 0.00241342 0 0.0237818
-0.000138897 0.00282521 0 0.022008
-0.000422518 0.00130967 0 0.0331758
0.000897928 0.00602889 0 0.000276315
0.00296246 0.0177704 0 7.48622e-005
-0.000240922 0.0022558 0 0.0254446
0.000161456 0.0106342 0 0.000184623
-0.000169117 0.00269067 0 0.0232966
-0.00600599 0.0132277 0 7.57416e-006
-0.00498542 0.0226529 0 5.44485e-005
0.00035646 0.00189436 0 0.0276669
0.000360867 0.00193124 0 0.0274611
0.000188008 0.00159518 0 0.0282816
0.00315697 0.0294361 0 0.000169148
0.000380728 0.00331446 0 0.000851869
-0.000407732 0.00541329 0 0.000262532
0.00599218 0.0187772 0 2.41743e-005
-0.000475668 0.0124289 0 0.000327738
9.243e-005 0.00339173 0 0.00197795
-0.0022067 0.00902531 0 0.000421773
0.000138287 0.010546 0 0.000178992
-4.59787e-005 0.00300592 0 0.0142413
0.000475334 0.00325723 0 0.00078325
0.0081269 0.0233608 0 2.15045e-005
-0.000136448 0.00286953 0 0.0212718
0.000465099 0.00132931 0 0.0335013
0.000196949 0.00312437 0 0.00143595
-0.000725979 0.00459524 0 0.000350734
0.00566025 0.0201173 0 3.22293e-005
-0.000237093 0.000937504 0 0.037721
-7.15727e-006 0.00298867 0 0.0154894
-0.000556128 0.00552312 0 0.000241061
-0.000151452 0.00278159 0 0.0225305
0.00604583 0.0167381 0 2.04749e-005
5.44524e-005 0.00307484 0 0.00824821
3.5211e-005 0.00270778 0 0.0220673
-0.00210731 0.0068781 0 0.000448025
8.91266e-005 0.00319599 0 0.00360294
-0.00242079 0.00974735 0 0.000367331
0.00135885 0.00413507 0 0.000563673
-0.00108228 0.00797081 0 0.000332039
3.29303e-005 0.00271504 0 0.0219665
-0.000508078 0.0208168 0 0.000387389
-0.00472826 0.0198065 0 3.97264e-005
0.00152826 0.0090827 0 0.000462568
-0.00252462 0.00897287 0 0.00036847
-4.09377e-005 0.0027578 0 0.0216086
-0.00186927 0.0116808 0 0.000359809
0.00108447 0.00518193 0 0.000462737
-0.00419392 0.0202211 0 4.87171e-005
0.000296615 0.00594885 0 0.000210551
0.00365557 0.0156923 0 5.04493e-005
-0.000138643 0.00311989 0 0.00264797
3.44704e-005 0.00298593 0 0.0157434
-0.000249911 0.000891772 0 0.0396442
0.00110337 0.0099601 0 0.000376215
8.04689e-005 0.00279643 0 0.021457
0.00779157 0.0249956 0 2.78703e-005
0.000351464 0.00337107 0 0.000890154
-0.00012879 0.00323538 0 0.00253913
0.000155895 0.00168996 0 0.0274296
8.56943e-005 0.00294739 0 0.0188018
0.0053023 0.0238774 0 8.35106e-005
0.000238423 0.00318026 0 0.00124203
0.000230406 0.00226533 0 0.0253824
-5.15866e-005 0.00292996 0 0.0185685
2.57476e-005 0.00286927 0 0.0198811
0.000105066 0.00340141 0 0.00186984
-0.0006343 0.00341198 0 0.000773449
-0.00683177 0.0130924 0 6.66277e-006
-1.54609e-005 0.00299907 0 0.0148512
-0.00215958 0.00656839 0 0.000436262
0.00301179 0.0141363 0 7.2464e-005
-0.000723924 0.00463742 0 0.000340132
-0.000555458 0.00358088 0 0.000658094
0.000287933 0.00394954 0 0.000643065
-0.00525881 0.0259389 0 0.000110074
-0.000235386 0.00314485 0 0.00117557
-0.000664883 0.00104525 0 0.0415996
0.00182857 0.0107598 0 0.000397027
0.00289308 0.0133881 0 8.65289e-005
0.000556851 0.000459359 0 0.0693996
-6.31462e-005 0.00306344 0 0.00834323
0.00204396 0.0126442 0 0.000298233
-0.000369072 0.00408052 0 0.000550749
-0.00018247 0.00378321 0 0.00084017
0.000579156 0.0162179 0 0.000616244
0.00117061 0.0100074 0 0.000384345
0.000129771 0.00301154 0 0.0010981
0.00050022 0.00329429 0 0.000780152
-0.00194273 0.0117557 0 0.000347232
0.000295066 0.00600891 0 0.000207467
-0.000154748 0.0030213 0 0.000984042
8.51353e-005 0.00297491 0 0.0174834
0.000370749 0.00364798 0 0.000753609
0.00032381 0.000892659 0 0.0438237
-0.000114683 0.00273658 0 0.0224001
7.10543e-005 0.0030026 0 0.0140615
-9.6647e-005 0.00324264 0 0.00292724
0.000733896 0.00537107 0 0.000269203
0.000155197 0.00494735 0 0.000327575
0.000610019 0.00412319 0 0.000441443
0.000353717 0.00194986 0 0.0273821
-0.000244432 0.00314026 0 0.00110856
-0.00502653 0.0232658 0 7.9211e-005
-0.00178789 0.0309983 0 0.000161838
-0.000579723 0.00361754 0 0.000645796
0.00813841 0.0273314 0 5.31682e-005
-0.002496 0.0131044 0 0.000146595
-0.00431729 0.0290645 0 0.000145825
-0.000157683 0.00240005 0 0.0244122
-6.09633e-005 0.00273787 0 0.0219056
-0.000172602 0.00356894 0 0.00116134
5.95493e-005 0.00280503 0 0.0211756
3.59382e-005 0.00297531 0 0.0163939
0.0038221 0.0156522 0 4.67143e-005
0.00151814 0.00899556 0 0.000459741
0.00891208 0.0209237 0 1.85884e-005
0.00932881 0.0247628 0 1.96892e-005
0.000401147 0.00319889 0 0.000813605
-1.37134e-005 0.00292236 0 0.0184564
-0.00149883 0.0199029 0 0.000320063
-0.000151382 0.00307642 0 0.00185476
-9.99299e-005 0.00297786 0 0.0172839
0.00528439 0.0241343 0 8.64666e-005
2.61097e-005 0.00286432 0 0.0199842
0.000206875 0.00349712 0 0.00120456
-0.00509797 0.0234717 0 7.8971e-005
-0.000597722 0.000953511 0 0.041992
-0.00793898 0.0155863 0 1.04037e-005
0.00183935 0.0106624 0 0.000399093
7.52069e-005 0.00339368 0 0.00198903
-7.77056e-005 0.00294222 0 0.0186816
-9.8985e-005 0.00297992 0 0.0170809
0.00161823 0.00911669 0 0.00047034
8.21842e-005 0.00297527 0 0.017352
-0.00188133 0.00900925 0 0.000472703
-0.00617827 0.0275965 0 9.66754e-005
-0.000490092 0.00321051 0 0.000719209
0.00945115 0.0288751 0 4.55805e-005
-0.00016434 0.00272067 0 0.0231577
-0.00797941 0.0222445 0 1.97312e-005
-4.01564e-005 0.00301654 0 0.0134558
-0.00180498 0.00506765 0 0.000494065
-0.000161305 0.00301261 0 0.00090197
-0.000482063 0.00316965 0 0.000683854
-0.000942791 0.00378901 0 0.000748565
-0.000134053 0.00282435 0 0.0219745
0.000242746 0.000963685 0 0.0410729
0.00525461 0.0274919 0 0.000120342
0.00306352 0.0179257 0 7.31442e-005
-0.000120066 0.00324295 0 0.00258059
-0.00319507 0.0125029 0 4.73133e-005
-0.000290892 0.00233844 0 0.0256118
0.00159844 0.00482417 0 0.000564476
0.00787978 0.0236538 0 2.28341e-005
0.00145057 0.0259009 0 0.000238151
-0.000336257 0.00619409 0 0.000191924
-0.000333917 0.00172186 0 0.0286827
0.00577509 0.0216659 0 3.14411e-005
0.000667048 0.00332313 0 0.000663917
0.00248969 0.00807562 0 0.000359306
-0.00160944 0.00467215 0 0.000548959
1.98969e-005 0.00242157 0 0.0237698
0.000286635 0.0021356 0 0.0261534
-0.00161117 0.00618199 0 0.000511782
7.54635e-005 0.00268391 0 0.0224448
0.00101663 0.00497361 0 0.000420335
9.78423e-005 0.00320089 0 0.00339544
-0.000282098 0.0245537 0 0.000258607
0.00160534 0.0053807 0 0.000568807
0.000645555 0.00426047 0 0.000425076
0.000344665 0.00191282 0 0.0274795
-4.37224e-005 0.0030135 0 0.0136344
0.000410526 0.00592784 0 0.000211282
-0.00161438 0.00462874 0 0.000539799
0.000197339 0.00307463 0 0.0011197
-0.00787948 0.0250527 0 2.5743e-005
0.000365567 0.000836364 0 0.0462866
0.000428529 0.0031113 0 0.000663374
6.29689e-005 0.00280138 0 0.0212769
-0.00260928 0.0115127 0 0.000270751
0.00511854 0.0182191 0 3.21815e-005
-0.000191506 0.0013612 0 0.0300226
0.000255298 0.00234631 0 0.0253096
7.80872e-005 0.00285378 0 0.0207394
-6.93966e-006 0.00361778 0 0.001259
-0.000112834 0.00273034 0 0.0224448
-0.000151306 0.00308356 0 0.00191762
0.000794921 0.00339323 0 0.000639076
0.000120559 0.00308016 0 0.00320395
-0.00060963 0.000994212 0 0.0415692
-0.000187211 0.00375918 0 0.000861535
-0.000179749 0.00239602 0 0.0245653
0.000583853 0.00320912 0 0.000650387
-0.000220391 0.00307379 0 0.000986533
-3.20721e-005 0.00313154 0 0.00642653
-0.00240166 0.00829286 0 0.000370302
-0.000107553 0.0032363 0 0.00281087
0.000485775 0.00324734 0 0.000763665
-1.6528e-005 0.00283252 0 0.0204918
0.000388916 0.00319175 0 0.000823065
-0.000191501 0.000101552 0 0.0789194
-0.00244196 0.00780076 0 0.000361525
-0.000237142 0.00223825 0 0.0254847
-0.00179252 0.00511195 0 0.000501123
7.86645e-005 0.00300926 0 0.0127291
-0.00578012 0.0268724 0 0.000102662
-0.00101007 0.00801211 0 0.000288091
0.000363332 0.00337974 0 0.000888783
0.000391279 0.00186159 0 0.0281081
0.000433244 0.00317308 0 0.000721891
0.00161612 0.00543442 0 0.000564839
-0.00207993 0.00693738 0 0.000442475
0.000483914 0.00474879 0 0.000353685
0.000802557 6.40842e-005 0 0.0683692
0.00066144 0.00330597 0 0.000649467
0.00141767 0.0197289 0 0.000335093
-0.000651775 0.00329699 0 0.000673982
0.000282152 0.00304241 0 0.000717347
-0.000357054 0.00319624 0 0.000872864
-0.00178284 0.00623412 0 0.000498225
3.8992e-005 0.00380209 0 0.000910302
-0.00100109 0.0210667 0 0.000355505
0.000165033 0.00158259 0 0.0282886
0.00864187 0.0174253 0 1.46615e-005
0.00315453 0.0128329 0 5.84321e-005
-8.64597e-005 0.00318341 0 0.0037355
-0.000259494 0.0126492 0 0.000423964
0.000466396 0.000355167 0 0.0739232
0.000246728 0.00318708 0 0.00120872
-0.000724122 0.000493878 0 0.0607612
-0.00236534 0.0089472 0 0.000391611
-0.00585899 0.0184819 0 2.55832e-005
-0.000109395 0.00425783 0 0.000537691
-0.000225082 0.00307869 0 0.000959265
0.00116126 0.00383867 0 0.000613495
0.000146244 0.00305529 0 0.00169487
0.000106639 0.00285591 0 0.0211674
0.00516349 0.0142403 0 1.70059e-005
-0.000547118 0.0281975 0 0.000206387
-0.00314055 0.0188201 0 6.67346e-005
6.39205e-005 0.0034062 0 0.00188438
0.000746714 0.00049437 0 0.0636571
0.00226648 0.0258744 0 0.000211113
-0.000137355 0.00283875 0 0.021814
0.00173233 0.0108179 0 0.000395574
-0.000334456 0.00625618 0 0.000190534
-0.000652252 0.00338145 0 0.000745094
-6.89277e-005 0.00306466 0 0.00792671
0.000126795 0.00304178 0 0.00219684
0.00478399 0.0277755 0 0.000132963
0.000516287 0.0229306 0 0.000308733
5.89116e-005 0.00254342 0 0.0232055
-0.00795861 0.0246948 0 2.3811e-005
0.00133689 0.00999394 0 0.000415278
-0.000118825 0.0220921 0 0.000349678
6.34909e-005 0.0107046 0 0.000191052
-0.000946741 0.00381309 0 0.00074914
0.00581241 0.0241952 0 6.3729e-005
-0.00487736 0.01991 0 3.86416e-005
0.00170829 0.0256098 0 0.000231904
9.98067e-005 0.00316224 0 0.00369429
0.00308063 0.0142797 0 7.05348e-005
-0.000279242 0.00307977 0 0.000788037
-0.000183934 0.00303725 0 0.000917263
7.83288e-005 0.00286324 0 0.0205196
-0.000440884 0.00514493 0 0.000280135
0.000455558 0.00477565 0 0.000343653
0.00520625 0.0221693 0 4.054e-005
-0.00179507 0.00722781 0 0.00050363
5.54873e-005 0.00266826 0 0.0224271
-0.00157971 0.00456195 0 0.000550337
4.18607e-005 0.00302762 0 0.0123556
-0.000194972 5.19224e-005 0 0.079615
-0.000846289 0.00342394 0 0.00062291
-0.00105965 0.00823661 0 0.000323515
0.000163413 0.00479131 0 0.000353192
-8.2874e-005 0.00288534 0 0.0202417
0.00157378 0.00552232 0 0.000567771
-7.66839e-005 0.00293931 0 0.0187849
0.000101978 0.0109948 0 0.000266961
-0.000363872 0.00601296 0 0.000203042
0.000117978 0.00287815 0 0.0210548
0.000219153 0.00318835 0 0.0013754
-0.00163196 0.00449872 0 0.000534868
-0.000221409 0.00303399 0 0.00077214
-0.000370966 0.0244074 0 0.000264783
-0.000466554 0.00315829 0 0.000694824
0.000396164 0.00331941 0 0.000839371
-0.00482666 0.0238063 0 0.00010548
0.00133411 0.00522841 0 0.000596831
-0.00267568 0.00982141 0 0.00030056
-0.000480207 0.0219659 0 0.000345925
0.00177473 0.0106071 0 0.000405913
0.000428512 0.00597987 0 0.000208209
0.00330832 0.0202369 0 7.10854e-005
-0.00036699 0.012473 0 0.000357757
-0.000901486 0.00347959 0 0.000624827
-9.70158e-005 0.00294708 0 0.0189907
-0.00110466 0.0144253 0 0.000319284
-0.00107199 0.0143087 0 0.000328034
0.000113095 0.0030798 0 0.00360943
0.000776547 0.0117402 0 0.000322683
-0.000196596 0.00302496 0 0.000778522
-0.00581483 0.0148124 0 1.4664e-005
0.000125326 0.00308478 0 0.00303115
-0.00172589 0.0230235 0 0.000266949
-0.00123798 0.0114294 0 0.000386836
-0.000106038 0.00301072 0 0.0031495
7.68012e-005 0.00277918 0 0.0216156
-0.000218387 0.00226751 0 0.0252369
0.00288382 0.0120736 0 0.00015229
0.000136685 0.00272066 0 0.0228012
0.00126396 0.00994364 0 0.000409124
0.000169734 0.00323168 0 0.00198136
3.33298e-005 0.00296283 0 0.0170308
7.38909e-005 0.00285244 0 0.020721
0.00226662 0.00684142 0 0.000390489
-4.80444e-005 0.00288948 0 0.0196505
0.000117291 0.00304527 0 0.00288938
0.00044057 0.00316393 0 0.000722273
0.00025781 0.000139806 0 0.0776375
-0.000553437 0.0115383 0 0.000284219
0.00174054 0.0109254 0 0.000393717
-0.00657824 0.0304887 0 0.000101415
-0.00287878 0.0309438 0 0.000154272
-1.74214e-005 0.00292383 0 0.0184197
0.000417861 0.00311152 0 0.000669241
-0.000158816 0.00302837 0 0.00102425
0.000540608 0.00339996 0 0.000772359
0.00322243 0.0179545 0 6.44915e-005
-0.000159371 0.0013528 0 0.0300049
0.000126077 0.0159893 0 0.000712664
-0.00432652 0.0294311 0 0.000146405
0.0015673 0.00546801 0 0.000574435
-5.0904e-005 0.00292621 0 0.0186903
-0.000106737 0.00293051 0 0.0196744
0.00275932 0.0110589 0 0.0002851
0.000556951 0.00340784 0 0.000779627
0.000399007 0.0063813 0 0.000179232
-4.55764e-005 0.00288684 0 0.0196907
5.78688e-005 0.00240298 0 0.0238929
-0.00135948 0.0128543 0 0.000344887
0.00105587 0.00489705 0 0.000477652
-0.00180772 0.00736401 0 0.000512441
8.62884e-005 0.0107917 0 0.000192755
-1.73838e-005 0.00299616 0 0.015082
-0.000559779 0.00402893 0 0.000495392
-0.000129894 0.00339006 0 0.00177537
-0.00108645 0.0209701 0 0.00036162
-0.000355289 0.00318516 0 0.000860476
6.75287e-005 0.00268766 0 0.0223682
-1.6399e-005 0.00282695 0 0.0206146
0.000375645 0.00184967 0 0.0280847
0.000226595 0.00318087 0 0.001324
-0.00157723 0.0197887 0 0.000322873
0.000153682 0.00302297 0 0.000980631
-0.000983791 0.00376429 0 0.000739861
0.00320404 0.0139037 0 6.22364e-005
-0.000399729 0.0051532 0 0.000296812
-8.43671e-005 0.0028893 0 0.0201738
0.00153091 0.0204307 0 0.000324702
0.0023948 0.0125217 0 0.000228524
0.000662239 0.00525468 0 0.000276798
-0.00103759 0.0179087 0 0.000425769
-0.00194218 0.00558429 0 0.000472669
-0.000960129 0.00376594 0 0.000736019
-0.000309837 0.00306474 0 0.000711956
0.00162461 0.00920594 0 0.000472571
0.00346181 0.0203111 0 6.55781e-005
0.000412094 0.000782235 0 0.0503513
4.10836e-005 0.00290739 0 0.0190958
0.00107752 0.00513333 0 0.000464532
-0.00139776 0.00696247 0 0.000434863
5.83714e-005 0.0023895 0 0.0239601
0.000501828 0.0119171 0 0.00032127
-2.97555e-005 0.00300349 0 0.0145271
0.00113092 0.00612109 0 0.000382385
3.11664e-005 0.00285722 0 0.0201509
-0.000756348 0.0223669 0 0.000318165
0.000606022 0.00322532 0 0.000650679
0.00858419 0.0213223 0 1.94053e-005
0.00228739 0.00873166 0 0.000400987
-0.00330691 0.0124678 0 3.52524e-005
-0.00135503 0.018735 0 0.000356247
-0.00782909 0.0173425 0 1.38765e-005
0.000179373 0.00168518 0 0.0276085
0.000181353 0.0228576 0 0.000316705
0.00116853 0.00608209 0 0.000401981
0.00534216 0.0272787 0 0.000120812
0.000808836 0.00340365 0 0.000643227
-0.00176706 0.00728799 0 0.000503266
0.000366125 0.00308127 0 0.000670083
0.000142062 0.00271694 0 0.0228954
0.000456136 0.0264018 0 0.000235255
0.000149779 0.00301624 0 0.000924076
8.09965e-005 0.015903 0 0.000713419
3.07264e-005 0.00286231 0 0.0200501
-0.000148146 0.00339011 0 0.00168459
-0.0064378 0.0277565 0 9.43628e-005
0.00072806 0.00532362 0 0.0002726
-0.00065633 0.00335203 0 0.000708285
-0.000360464 0.000878987 0 0.0406441
-9.67537e-005 0.00295742 0 0.0186475
-0.000484113 0.00948683 0 0.000180608
-0.000565445 0.00399845 0 0.000509585
0.000588623 0.00111811 0 0.0394178
0.000130395 0.00304539 0 0.00210839
0.000107754 0.00285149 0 0.0212402
0.00165731 0.0250536 0 0.000242219
0.00285988 0.0119675 0 0.000177641
-9.54028e-005 0.00428588 0 0.00052675
-0.000124414 0.00317156 0 0.00288657
-0.00814733 0.0285856 0 6.72272e-005
-0.000216377 0.0031251 0 0.00123878
0.00549751 0.012219 0 8.08165e-006
-0.00550796 0.012201 0 5.49092e-006
0.00287309 0.0132504 0 8.70955e-005
0.000396043 0.00090361 0 0.0425606
-9.96587e-005 0.00294535 0 0.0191156
-0.00215947 0.00674928 0 0.000430892
-0.000289559 0.000893856 0 0.0397582
0.00184728 0.00894591 0 0.000467569
-0.000404895 0.00611192 0 0.000194006
-0.00085135 0.00350535 0 0.000661953
3.34633e-006 0.00298331 0 0.0157917
0.00378526 0.0199019 0 5.69167e-005
-0.000528492 0.024373 0 0.000271961
-0.000842118 0.0116133 0 0.000323787
-0.00298148 0.0188909 0 7.29794e-005
5.9556e-005 0.0025331 0 0.0232785
-0.000468824 0.00121303 0 0.0349454
9.1581e-005 0.0171817 0 0.00067254
-0.00127026 0.0113439 0 0.00039026
0.00402234 0.0130084 0 1.92371e-005
-0.000363163 0.00496329 0 0.000313757
-0.00609252 0.0268039 0 9.357e-005
0.000283831 0.00172705 0 0.0281157
-0.000884834 0.00452052 0 0.000404385
0.000104251 0.00312707 0 0.00388435
0.00028648 0.000908897 0 0.0440693
0.00627587 0.0218045 0 2.8346e-005
0.000138189 0.00301242 0 0.0009791
-8.45766e-005 0.00300744 0 0.0123977
-0.000367296 0.0115469 0 0.000270638
4.43738e-005 0.00303088 0 0.0120835
0.00481648 0.0179238 0 3.58678e-005
0.00149749 0.00436073 0 0.000553177
0.00128386 0.00510424 0 0.000604575
-0.000137123 0.00279496 0 0.0222539
0.00010392 0.0048879 0 0.000341714
-0.00091848 7.16259e-005 0 0.0689926
3.54985e-006 0.00298714 0 0.0155685
0.000749152 0.00426831 0 0.000414682
-0.000130195 0.00286367 0 0.0213759
0.00513916 0.0264131 0 0.000117716
-0.00145383 0.00693267 0 0.000455319
-0.000170314 0.00271408 0 0.0232253
0.000708754 0.00344963 0 0.000738846
0.000173403 0.0026398 0 0.0236255
0.00102924 0.00397184 0 0.000752955
7.04719e-005 0.00292897 0 0.0190151
-0.000154347 0.00277069 0 0.0226107
0.000152777 0.00306484 0 0.0016597
-0.0057264 0.0155753 0 1.74903e-005
-0.00516063 0.0124211 0 7.05223e-006
-0.000727401 0.00332353 0 0.000646449
0.00177507 0.00499121 0 0.000504479
-0.00104148 0.00729487 0 0.000291481
8.03056e-005 0.00285902 0 0.0206284
0.000619507 0.00322392 0 0.000641134
0.000491741 0.00344599 0 0.000733963
-8.64345e-005 0.00319528 0 0.00359988
0.000495863 0.00327729 0 0.000776693
0.00629165 0.0165428 0 1.89279e-005
-0.000348261 0.00373379 0 0.000731508
0.00695359 0.012557 0 8.49965e-006
-0.00614658 0.0186042 0 2.39059e-005
0.00446424 0.0221677 0 6.96733e-005
-0.000789844 0.00391708 0 0.000597629
0.000117774 0.00196522 0 0.0258816
-0.000255362 0.0148691 0 0.000645184
-0.00503812 0.0284552 0 0.000131669
-0.000107009 0.00253653 0 0.0235009
0.000146628 0.00274959 0 0.0227347
0.00773255 0.0309094 0 8.4692e-005
0.000159147 0.00499252 0 0.000328369
0.000514649 0.00313677 0 0.000646885
0.00101358 0.00492618 0 0.000425003
-0.00010231 0.00251506 0 0.0235606
-0.000149253 0.0149017 0 0.000667783
-0.0026764 0.0106555 0 0.000299371
-0.000401914 0.00497223 0 0.000307092
-9.9778e-005 0.00250395 0 0.0236126
-0.000167489 0.00307565 0 0.00147598
0.00547148 0.0254757 0 0.000101315
6.86885e-005 0.00304125 0 0.00962005
-0.00443178 0.028435 0 0.000142237
-9.60567e-005 0.00299261 0 0.0156876
0.00605816 0.0243911 0 5.94826e-005
-0.00166852 0.0218177 0 0.000292879
3.51271e-005 0.00306949 0 0.00943476
0.00934401 0.0252145 0 1.98176e-005
0.000689131 0.0161709 0 0.000574611
-0.00185288 0.0231304 0 0.000262334
-0.000635695 0.0147353 0 0.000508577
0.000424951 0.000378919 0 0.0737543
3.11571e-005 0.00341221 0 0.00188809
-0.00451594 0.0239154 0 0.000120327
4.55634e-005 0.00300278 0 0.0145373
-0.000190882 0.0026229 0 0.0238911
-0.00293428 0.0314144 0 0.00015595
0.000192455 0.0109275 0 0.000249063
-7.99306e-005 0.00301235 0 0.0118752
-0.000103784 0.019352 0 0.000490105
0.000298059 0.00179298 0 0.0277765
0.000318272 0.00306073 0 0.000708927
4.79498e-005 0.00267219 0 0.0223956
0.000550505 0.00439983 0 0.000402954
-6.64966e-005 0.00296368 0 0.0175266
-0.000353929 0.0037557 0 0.000712306
0.00136689 0.00417221 0 0.000574534
0.000288631 0.0043673 0 0.000461049
-0.000116817 0.00316526 0 0.00316115
0.000228982 0.00477361 0 0.000363031
-0.00010849 0.00292752 0 0.0198474
0.00158742 0.0252298 0 0.000240428
0.00029744 0.00214644 0 0.0262032
0.00012001 0.0179918 0 0.000597935
-2.8464e-005 0.00302556 0 0.0128721
-0.000121369 0.00301027 0 0.00131492
-0.000613293 0.003423 0 0.000793757
0.000416492 0.000739339 0 0.0523521
0.00607599 0.0132862 0 9.84419e-006
-0.000118426 0.00301015 0 0.00133565
0.000338231 0.0030745 0 0.000688453
-0.000760719 0.00047075 0 0.0608133
-0.000159712 0.00339978 0 0.00160743
0.00621185 0.0259584 0 8.05389e-005
-0.000407926 0.00403608 0 0.000529929
5.21801e-005 0.0048277 0 0.000356898
0.00820777 0.0174274 0 1.51558e-005
-0.000651027 0.00328042 0 0.000651343
-8.91944e-005 0.00296269 0 0.0182483
-0.000640908 0.0223311 0 0.000324037
0.00498206 0.0148716 0 2.16111e-005
-0.000133404 0.00280466 0 0.0220851
-0.00284514 0.0101497 0 0.000285876
0.00015129 0.00247549 0 0.0240496
0.0036537 0.0164932 0 5.34424e-005
0.000170347 0.00269813 0 0.0233808
-0.00192463 0.00759706 0 0.000485558
-0.00146113 0.00452985 0 0.000603514
0.00164564 0.0109866 0 0.000394522
0.00153691 0.0307746 0 0.000173849
0.000402223 0.00321336 0 0.000827538
-0.000561587 0.00118082 0 0.0373428
-0.00107178 0.00734408 0 0.000296842
-4.6988e-005 0.00292472 0 0.0186737
0.000121356 0.00262665 0 0.0231604
-0.00180667 0.021881 0 0.000278745
-0.000301986 0.0030856 0 0.000763521
-0.000116548 0.00289513 0 0.0207316
0.000683718 0.0116885 0 0.000315328
-0.000354426 0.00170815 0 0.0290049
0.000168525 0.00302989 0 0.000948242
0.0016288 0.00554363 0 0.000556039
-0.000454254 0.00780077 0 0.000132251
9.99188e-005 0.00299126 0 0.0156758
-0.000923631 0.00351832 0 0.00063868
-0.000513771 0.00531417 0 0.000260958
-0.000134682 0.0174176 0 0.000642572
0.000245462 0.00302872 0 0.000719353
-0.00010594 0.00296983 0 0.01796
0.000263028 0.00390471 0 0.000701764
0.000668464 0.00324245 0 0.000623064
-0.00016736 0.00267447 0 0.0233711
9.47415e-005 0.00371123 0 0.00100016