# U  FACE_DATA 23640
#  x  y  z  U_x  U_y  U_z  
-0.00296834 0.0159323 0 -703.772 2266.67 0
0.000794309 0.0100339 0 -351.929 2569.69 0
0.00690979 0.0130745 0 411.879 338.902 0
0.000158008 0.0018211 0 -12.1324 72.726 0
-0.000662165 0.0113619 0 443.186 2607.34 0
-0.00203768 0.00587959 0 -209.501 907.461 0
-0.000220137 0.00748479 0 -124.658 2816.8 0
0.00214531 0.0125841 0 -76.1337 2108.04 0
-0.00164167 0.00702341 0 -198.23 2299.41 0
0.00020958 0.00306993 0 1417.29 620.096 0
4.59799e-005 0.00273939 0 -33.5231 391.363 0
0.00075606 0.00524313 0 807.841 2431.59 0
0.00107075 0.0257944 0 269.138 2618.9 0
-0.000458708 0.0115994 0 468.872 2611.17 0
-0.000900467 0.00350322 0 -518.5 551.945 0
-0.00222355 0.00655891 0 -136.752 837.615 0
0.00442703 0.0182294 0 1052.59 2223.82 0
7.09705e-005 0.00299924 0 -58.9729 1045.17 0
-2.45517e-005 0.00292714 0 42.6096 721.069 0
-0.000543852 0.00394831 0 -1334.6 2124.61 0
7.98376e-005 0.00283498 0 -84.2867 489.084 0
0.00510868 0.0124654 0 388.036 164.776 0
7.37866e-005 0.00284217 0 -81.282 503.313 0
-0.000122136 0.00287943 0 128.841 447.513 0
0.00117211 0.0120328 0 -367.842 2458.44 0
0.000340217 0.00636002 0 259.874 2677.42 0
-1.62375e-005 0.00331413 0 -103.5 2140.11 0
0.000288499 0.00391811 0 810.256 2344.79 0
0.00604323 0.0215883 0 1198.54 2241.18 0
0.0015748 0.0199438 0 561.136 2383.28 0
0.000642306 0.0286533 0 136.155 2662.05 0
-0.000788091 0.000235815 0 -0.704039 -0.192603 0
8.45076e-005 0.00283429 0 -88.6659 484.441 0
-0.000766033 0.00453527 0 -1169.42 2273.82 0
-0.000556446 0.00360452 0 -1602.09 1681.75 0
-0.000694613 0.00330261 0 -520.232 395.983 0
0.00425461 0.0181246 0 1017.06 2257.77 0
0.00563158 0.0299784 0 1019.73 2434.61 0
0.00374311 0.0125452 0 907.977 491.722 0
-0.000168184 0.00269727 0 85.7209 301.853 0
0.00100487 0.00483203 0 923.958 2187.64 0
-0.00170325 0.00704586 0 -204.412 2263.4 0
-0.00047461 0.0123053 0 421.041 2576.08 0
-0.00401905 0.0129379 0 -1117.74 682.209 0
0.000128446 0.00148328 0 -6.04632 33.4805 0
0.000108141 0.00315803 0 901.335 1692.88 0
0.00299545 0.0176096 0 623.966 2468.77 0
0.00122698 0.00708374 0 162.927 2542.93 0
0.000214903 0.00307399 0 1440.31 629.244 0
0.00225142 0.0126586 0 18.9367 2019.4 0
0.000204708 0.00068009 0 3.42802 4.64274 0
4.25297e-005 0.00299727 0 -44.5118 1027.63 0
-0.000477288 0.00315875 0 -656.308 369.874 0
-0.00378992 0.02149 0 -1036.01 2279.85 0
0.000139812 0.00181138 0 -10.6898 70.6479 0
0.000208917 0.00302796 0 410.627 100.257 0
-0.00160791 0.0049468 0 -536.623 1417.89 0
0.000941143 0.00995448 0 -305.298 2546.37 0
8.9442e-006 0.010956 0 24.7178 2652.2 0
-0.000434056 0.00133506 0 8.26281 35.1818 0
0.000566946 0.0289715 0 100.503 2650.12 0
-7.40414e-005 0.003214 0 -570.843 1908.33 0
-0.000145493 0.00239699 0 34.027 194.312 0
3.42483e-005 0.00298986 0 -48.2935 984.067 0
0.000575544 0.00987125 0 -399.396 2648.7 0
3.71363e-005 0.00299095 0 -51.0542 990.658 0
-0.00247102 0.00772987 0 -104.704 782.591 0
0.00096928 0.0118325 0 -416.482 2507.8 0
-9.22697e-005 0.00299969 0 24.4202 1042.08 0
-0.000570617 0.0122505 0 463.575 2582.97 0
-0.000211411 0.00254812 0 65.079 231.767 0
-0.000765289 0.00457715 0 -1138.39 2268.27 0
8.13068e-005 0.00294139 0 -142.955 688.508 0
-0.00437678 0.0203082 0 -894.156 2357.43 0
0.00226862 0.00661101 0 174.916 812.972 0
-0.000832194 0.000220534 0 -0.653822 -0.0350839 0
-0.000164868 0.00301134 0 -152.447 29.4844 0
0.0012393 0.0259768 0 301.211 2618.6 0
-2.48279e-005 0.00292318 0 42.75 708.535 0
0.000116572 0.00245177 0 -30.3551 212.784 0
9.77655e-005 0.00313112 0 826.378 1637.6 0
0.000279024 0.00328636 0 1600.27 1537.42 0
-5.75605e-005 0.0116355 0 116.055 2536.27 0
-7.47936e-005 0.0117342 0 115.111 2537.75 0
0.000518168 0.00993111 0 -416.071 2690.34 0
-0.000154608 0.0030256 0 -967.624 317.346 0
4.53443e-005 0.00299839 0 -45.4604 1035.83 0
-0.000161071 0.0027724 0 86.0809 282.816 0
0.000104836 0.00293916 0 -158.566 568.624 0
-0.00100104 0.00361077 0 -477.184 529.379 0
-0.000510005 0.00921774 0 78.9184 2745.48 0
0.00100295 0.0100141 0 -310.883 2528.77 0
-0.000646084 0.00336418 0 -1172.05 983.65 0
6.96906e-005 0.00293287 0 -121.178 690.119 0
-1.67264e-005 0.00300289 0 11.5311 1058.48 0
0.000173509 0.0227352 0 46.22 2592.18 0
3.17037e-005 0.00298455 0 -49.8896 955.507 0
0.000312244 0.00306502 0 472.583 178.983 0
-0.00212604 0.00906512 0 -27.696 2118.62 0
-0.00049218 0.00322389 0 -1184.88 780.366 0
0.000341345 0.00323843 0 1750.61 1237.08 0
-0.00385942 0.0216496 0 -1042.62 2279.82 0
-0.000125834 0.0028813 0 126.992 413.32 0
0.00524627 0.0255212 0 1241.9 2291.4 0
0.000713781 0.0036837 0 1483.77 1675.04 0
0.00601727 0.0299149 0 1069.38 2403.33 0
-0.000344095 0.00203632 0 32.2229 116.422 0
-0.0047341 0.0239481 0 -1222.97 2267.13 0
-0.000460773 0.00539436 0 -512.45 2550.09 0
-0.00196148 0.00905338 0 -11.3632 2272.71 0
0.00143807 0.0303782 0 267.259 2648.02 0
7.94637e-005 0.00293894 0 -137.849 685.595 0
0.00013473 0.00481908 0 214.651 2605.2 0
0.00105264 0.00484794 0 870.637 2199.29 0
0.000112877 0.0030262 0 1281.07 1054.42 0
-0.00781161 0.0282885 0 -1427.74 2108.15 0
-0.000846622 0.00344471 0 -524.863 491.708 0
-0.00206201 0.0306837 0 -376.082 2647.43 0
-0.00313594 0.0160362 0 -751.603 2195.64 0
0.00144289 0.0198776 0 534.169 2428.31 0
-0.000135136 0.00286502 0 93.6377 311.93 0
-0.000205101 0.000950881 0 -4.41454 7.7836 0
0.000372212 0.00308853 0 435.355 189.335 0
0.000370404 0.000795868 0 5.8384 4.93277 0
0.000201681 0.00347815 0 989.229 2143.45 0
-0.000147808 0.00278598 0 102.865 351.956 0
0.000218103 0.000637733 0 3.55988 3.99005 0
0.000195722 0.00313377 0 1616.28 1204.98 0
-0.00203813 0.00594128 0 -213.923 970.801 0
0.00112067 0.00510142 0 696.854 2194.96 0
5.16573e-005 0.00373385 0 205.295 2411.23 0
0.000381501 0.00336875 0 1698.15 1541.29 0
0.000860715 0.0258401 0 194.338 2632.49 0
-0.000116556 0.00339842 0 -675.637 2166.11 0
-0.00513668 0.0257477 0 -1196.88 2315.47 0
-0.000162894 0.00277847 0 68.8377 226.103 0
8.27341e-005 0.00277738 0 -68.0932 419.623 0
0.0010674 0.0118759 0 -387.804 2483.97 0
-4.09992e-005 0.00275121 0 31.9942 404.005 0
3.29665e-005 0.00297369 0 -58.9526 899.08 0
-0.00204547 0.0090065 0 -38.4761 2198.4 0
-0.00160474 0.0048986 0 -535.354 1369.15 0
8.25825e-005 0.00294819 0 -149.938 703.377 0
4.00473e-005 0.00273627 0 -28.8698 389.134 0
-9.41642e-005 0.00295571 0 166.336 672.9 0
0.00150619 0.00997327 0 -190.468 2435.36 0
8.22134e-005 0.00268838 0 -48.3214 340.79 0
-0.000160791 0.00267895 0 79.973 305.31 0
-0.000596112 0.00909085 0 94.7268 2720.14 0
-9.31423e-005 0.00299701 0 91.8825 967.041 0
0.00235681 0.0126226 0 77.6737 1979.61 0
0.00203765 0.00557212 0 126.623 477.527 0
-0.000165794 0.0115731 0 240.421 2563.26 0
6.0159e-005 0.0021996 0 -8.08629 138.419 0
0.000371981 0.00362464 0 1332.61 2014.43 0
-0.00733688 0.029685 0 -1291.12 2307.08 0
-0.000180414 0.00743151 0 -106.025 2811.27 0
-0.000357207 0.004885 0 -508.518 2531.76 0
0.00253943 0.00813968 0 96.266 844.836 0
-1.29377e-005 0.00332967 0 -77.0407 2134.46 0
-0.0010235 0.00361199 0 -397.563 430.404 0
-0.000285329 0.0030748 0 -908.693 356.757 0
-0.000681311 0.00329291 0 -541.718 390.695 0
-0.00260727 0.00895038 0 -48.9757 873.379 0
0.00788717 0.0276195 0 1531.42 2146.97 0
0.0089704 0.0287411 0 1587.53 2094.29 0
-0.000270534 0.00232157 0 46.3902 169.396 0
-0.00014416 0.00312601 0 -1288.58 1423.41 0
-0.000337662 0.00201762 0 30.7004 113.235 0
0.0003962 0.00337513 0 1693.54 1519.17 0
0.00121317 0.00701782 0 169.221 2542.91 0
0.000116206 0.00302915 0 1339.2 1015.38 0
0.00225197 0.00666935 0 189.307 949.116 0
-0.000507665 0.00548922 0 -548.06 2556.67 0
-0.000231863 0.00226746 0 36.7733 158.616 0
0.000244361 0.00226851 0 -37.3846 156.245 0
0.00111028 0.00505498 0 717.981 2198.24 0
0.000121223 0.00304184 0 1343.14 1081.54 0
0.00012049 0.00243938 0 -30.4744 208.076 0
-0.0013386 0.0186068 0 -485.007 2427.31 0
0.000102064 0.00149733 0 -5.37762 34.0712 0
0.000147362 0.00301363 0 509.843 127.619 0
0.00106981 0.0119939 0 -391.653 2477.17 0
-0.000365953 0.00411169 0 -873.912 2361.94 0
0.00557444 0.020358 0 1192.71 2222.38 0
4.86089e-005 0.00307386 0 257.754 1494.29 0
-0.000177413 0.0035472 0 -782.694 2229.52 0
-0.000632994 0.00339325 0 -1359.16 1191.66 0
0.000487307 0.00130985 0 -13.6616 43.7626 0
-0.000349424 0.00402777 0 -869.908 2346.45 0
-0.00177251 0.00629586 0 -286.845 1925.56 0
-7.92525e-005 0.00273084 0 55.2868 376.469 0
0.000241714 0.00100077 0 2.05165 10.7897 0
-0.000154516 0.0114773 0 243.444 2566.17 0
0.00502442 0.0222916 0 1025.47 2385.53 0
-0.000166546 0.00272686 0 88.313 306.129 0
0.000707598 0.00365891 0 1476.88 1646.83 0
-0.00157418 0.0046046 0 -456.617 970.145 0
0.000122725 0.00301099 0 747.766 269.05 0
0.000172305 0.00324558 0 1221.04 1739.02 0
7.46185e-006 0.00286175 0 -9.3254 564.284 0
0.00533293 0.0140838 0 1152.35 841.808 0
0.00520504 0.0284215 0 1053.42 2416.32 0
-0.00170266 0.00713636 0 -193.077 2291.24 0
4.38765e-005 0.00290514 0 -70.2059 646.404 0
0.00035679 0.0099507 0 -203.888 2752.1 0
0.000120447 0.00300871 0 650.011 229.311 0
7.85992e-005 0.00284146 0 -85.9012 498.81 0
0.000146556 0.00306157 0 1531.96 1000.43 0
-0.000265484 0.00230758 0 44.7775 167.082 0
-0.000558184 0.0114136 0 463.733 2608.95 0
0.000873988 0.011905 0 -446.931 2519.78 0
0.00195145 0.0157285 0 191.912 2447.84 0
0.000415959 0.00988952 0 -335.984 2719.38 0
0.00204861 0.00551694 0 90.5034 270.006 0
0.00159497 0.00893937 0 -70.8757 2403.72 0
0.00125366 0.00690066 0 183.454 2509.82 0
-0.000537482 0.00397822 0 -1308.84 2146.15 0
-0.00245206 0.00890865 0 -47.8848 1301.86 0
-0.00591638 0.015069 0 -1413.22 1100.12 0
0.00182541 0.0157696 0 114.967 2470.34 0
-6.39179e-005 0.00274368 0 48.0055 392.433 0
1.24162e-005 0.00286011 0 -15.6284 560.405 0
0.000785526 0.00520879 0 826.589 2405.39 0
0.000119132 0.00288179 0 -130.437 469.84 0
0.000107617 0.00492998 0 149.498 2571.4 0
-0.000398708 0.00617064 0 -318.395 2654.88 0
-0.00031795 0.000861625 0 -5.83664 4.92488 0
-0.0054742 0.0145195 0 -1392.54 1011 0
-0.00050603 0.0093045 0 86.2247 2739.49 0
-0.00281713 0.0160093 0 -638.159 2353.58 0
-0.00521587 0.0225645 0 -1053.67 2282.01 0
0.000631138 0.00410172 0 1314.11 2117.98 0
0.00077675 0.0118594 0 -465.163 2526.05 0
-0.000339893 0.00491785 0 -488.433 2536.27 0
0.000278502 0.0033019 0 1581.62 1578.05 0
-0.000206291 0.0025551 0 66.3282 237.524 0
0.0015782 0.00885327 0 -61.831 2407.07 0
-0.000601058 0.00917374 0 123.378 2711.6 0
0.000107852 0.00308374 0 981.835 1434.3 0
0.000329157 0.00324408 0 1742.43 1270.11 0
-0.000107456 0.0030138 0 -1098.34 849.076 0
0.000995869 0.00478803 0 936.666 2201.54 0
-0.00176263 0.00715431 0 -196.237 2261.93 0
0.000133123 0.00190024 0 -11.4031 83.3653 0
0.00428452 0.0222831 0 1174.79 2254.89 0
0.00249322 0.0134845 0 404.531 2087.25 0
0.000209201 0.00303326 0 590.306 171.186 0
1.124e-005 0.00241342 0 -2.1633 200.161 0
-0.000138897 0.00282521 0 109.235 378.511 0
-0.000422518 0.00130967 0 6.61662 32.0325 0
0.000897928 0.00602889 0 424.492 2493.31 0
0.00296246 0.0177704 0 613.577 2439.01 0
-0.000240922 0.0022558 0 37.1534 155.863 0
0.000161456 0.0106342 0 -213.05 2705.32 0
-0.000169117 0.00269067 0 83.3359 299.792 0
-0.00600599 0.0132277 0 -785.766 278.241 0
-0.00498542 0.0226529 0 -1088.58 2267.11 0
0.00035646 0.00189436 0 -26.2551 94.7293 0
0.000360867 0.00193124 0 -27.6494 99.5266 0
0.000188008 0.00159518 0 -9.97317 46.3119 0
0.00315697 0.0294361 0 608.408 2579.52 0
0.000380728 0.00331446 0 1721.84 1374.72 0
-0.000407732 0.00541329 0 -447.579 2576.17 0
0.00599218 0.0187772 0 1391.92 1975.2 0
-0.000475668 0.0124289 0 416.34 2574.78 0
9.243e-005 0.00339173 0 504.627 2166.65 0
-0.0022067 0.00902531 0 -35.988 1916.86 0
0.000138287 0.010546 0 -209.701 2768.66 0
-4.59787e-005 0.00300592 0 22.1684 1086.26 0
0.000475334 0.00325723 0 1480.96 1026.99 0
0.0081269 0.0233608 0 1410.75 2150.17 0
-0.000136448 0.00286953 0 75.9107 243.423 0
0.000465099 0.00132931 0 -13.0338 42.8117 0
0.000196949 0.00312437 0 1638.09 1136.29 0
-0.000725979 0.00459524 0 -1106.12 2301.35 0
0.00566025 0.0201173 0 1212.77 2202.5 0
-0.000237093 0.000937504 0 -4.79494 7.28677 0
-7.15727e-006 0.00298867 0 8.48817 980.929 0
-0.000556128 0.00552312 0 -578.615 2550.66 0
-0.000151452 0.00278159 0 99.3391 339.238 0
0.00604583 0.0167381 0 1446.01 1599.07 0
5.44524e-005 0.00307484 0 305.418 1500.14 0
3.5211e-005 0.00270778 0 -22.6334 363.701 0
-0.00210731 0.0068781 0 -230.85 1512.38 0
8.91266e-005 0.00319599 0 687.155 1845.8 0
-0.00242079 0.00974735 0 -14.5423 1522.37 0
0.00135885 0.00413507 0 431.262 728.094 0
-0.00108228 0.00797081 0 51.6016 2654.97 0
3.29303e-005 0.00271504 0 -21.6175 370.38 0
-0.000508078 0.0208168 0 -195.892 2556.51 0
-0.00472826 0.0198065 0 -1020.91 2297 0
0.00152826 0.0090827 0 -93.0737 2422.43 0
-0.00252462 0.00897287 0 -58.063 1136.02 0
-4.09377e-005 0.0027578 0 32.989 410.93 0
-0.00186927 0.0116808 0 194.404 2224.23 0
0.00108447 0.00518193 0 664.605 2208.5 0
-0.00419392 0.0202211 0 -857.089 2369.04 0
0.000296615 0.00594885 0 274.105 2626.25 0
0.00365557 0.0156923 0 1024.73 2104.02 0
-0.000138643 0.00311989 0 -1255.03 1430.83 0
3.44704e-005 0.00298593 0 -52.8802 962.362 0
-0.000249911 0.000891772 0 -5.09365 6.25552 0
0.00110337 0.0099601 0 -272.123 2516.2 0
8.04689e-005 0.00279643 0 -71.9529 441.293 0
0.00779157 0.0249956 0 1377.63 2207.56 0
0.000351464 0.00337107 0 1667.32 1597.14 0
-0.00012879 0.00323538 0 -962.831 1863.97 0
0.000155895 0.00168996 0 -10.0782 55.855 0
8.56943e-005 0.00294739 0 -153.257 689.995 0
0.0053023 0.0238774 0 1332.87 2291.9 0
0.000238423 0.00318026 0 1673.08 1254.61 0
0.000230406 0.00226533 0 -35.587 155.72 0
-5.15866e-005 0.00292996 0 90.4348 708.848 0
2.57476e-005 0.00286927 0 -34.4143 575.424 0
0.000105066 0.00340141 0 566.384 2157.37 0
-0.0006343 0.00341198 0 -1412.77 1270.91 0
-0.00683177 0.0130924 0 -651.816 294.136 0
-1.54609e-005 0.00299907 0 12.9428 1036.74 0
-0.00215958 0.00656839 0 -183.218 1112.56 0
0.00301179 0.0141363 0 813.371 2018.96 0
-0.000723924 0.00463742 0 -1085.04 2317.36 0
-0.000555458 0.00358088 0 -1614.87 1650.98 0
0.000287933 0.00394954 0 786.897 2364.93 0
-0.00525881 0.0259389 0 -1223.62 2316.91 0
-0.000235386 0.00314485 0 -1711.23 1093.49 0
-0.000664883 0.00104525 0 10.8672 39.5766 0
0.00182857 0.0107598 0 -149.07 2347.53 0
0.00289308 0.0133881 0 746.136 1856.18 0
0.000556851 0.000459359 0 1.26081 -1.73677 0
-6.31462e-005 0.00306344 0 -341.752 1452.99 0
0.00204396 0.0126442 0 -135.918 2164.17 0
-0.000369072 0.00408052 0 -887.219 2351.13 0
-0.00018247 0.00378321 0 -602.509 2364.4 0
0.000579156 0.0162179 0 93.2052 2434.56 0
0.00117061 0.0100074 0 -275.574 2509.04 0
0.000129771 0.00301154 0 665.569 171.698 0
0.00050022 0.00329429 0 1543.18 1147.24 0
-0.00194273 0.0117557 0 185.517 2158.23 0
0.000295066 0.00600891 0 265.872 2635.35 0
-0.000154748 0.0030213 0 -771.942 225.932 0
8.51353e-005 0.00297491 0 -165.068 793.541 0
0.000370749 0.00364798 0 1322.76 2051.07 0
0.00032381 0.000892659 0 4.66469 7.96161 0
-0.000114683 0.00273658 0 77.8686 367.665 0
7.10543e-005 0.0030026 0 -35.8456 1078.03 0
-9.6647e-005 0.00324264 0 -714.31 1932.17 0
0.000733896 0.00537107 0 739.432 2449.79 0
0.000155197 0.00494735 0 219.851 2566.49 0
0.000610019 0.00412319 0 1269.65 2143.29 0
0.000353717 0.00194986 0 -27.5293 101.617 0
-0.000244432 0.00314026 0 -1708.04 1036.68 0
-0.00502653 0.0232658 0 -1263.42 2190.89 0
-0.00178789 0.0309983 0 -349.604 2658 0
-0.000579723 0.00361754 0 -1592.93 1680.8 0
0.00813841 0.0273314 0 1603.64 2095.48 0
-0.002496 0.0131044 0 -329.017 1931.68 0
-0.00431729 0.0290645 0 -845.477 2526.99 0
-0.000157683 0.00240005 0 36.8122 195.244 0
-6.09633e-005 0.00273787 0 44.4745 387.204 0
-0.000172602 0.00356894 0 -752.252 2265.33 0
5.95493e-005 0.00280503 0 -56.4187 461.074 0
3.59382e-005 0.00297531 0 -63.7316 905.468 0
0.0038221 0.0156522 0 1074.83 2051.41 0
0.00151814 0.00899556 0 -90.6667 2425.32 0
0.00891208 0.0209237 0 1425.96 1804.71 0
0.00932881 0.0247628 0 1428.92 2150.6 0
0.000401147 0.00319889 0 1500.27 920.425 0
-1.37134e-005 0.00292236 0 23.4007 709.991 0
-0.00149883 0.0199029 0 -564.039 2444.69 0
-0.000151382 0.00307642 0 -1521.37 1089.19 0
-9.99299e-005 0.00297786 0 161.508 611.537 0
0.00528439 0.0241343 0 1289.33 2207.51 0
2.61097e-005 0.00286432 0 -33.9227 565.708 0
0.000206875 0.00349712 0 976.588 2125.01 0
-0.00509797 0.0234717 0 -1263.43 2194.39 0
-0.000597722 0.000953511 0 0.534998 16.3709 0
-0.00793898 0.0155863 0 -1141.51 808.533 0
0.00183935 0.0106624 0 -151.055 2338.4 0
7.52069e-005 0.00339368 0 416.333 2186.51 0
-7.77056e-005 0.00294222 0 139.407 702.027 0
-9.8985e-005 0.00297992 0 167.328 639.28 0
0.00161823 0.00911669 0 -91.868 2396.93 0
8.21842e-005 0.00297527 0 -158.087 813 0
-0.00188133 0.00900925 0 -1.56276 2332.92 0
-0.00617827 0.0275965 0 -1267.72 2307.67 0
-0.000490092 0.00321051 0 -1076.85 701.023 0
0.00945115 0.0288751 0 1611.35 2042.11 0
-0.00016434 0.00272067 0 88.4091 312.205 0
-0.00797941 0.0222445 0 -1457.09 2053.6 0
-4.01564e-005 0.00301654 0 -10.7579 1151.13 0
-0.00180498 0.00506765 0 -267.265 764.265 0
-0.000161305 0.00301261 0 -257.451 50.0498 0
-0.000482063 0.00316965 0 -752.396 433.857 0
-0.000942791 0.00378901 0 -1124.79 1501.41 0
-0.000134053 0.00282435 0 111.692 399.505 0
0.000242746 0.000963685 0 2.57439 9.82052 0
0.00525461 0.0274919 0 1135.71 2394.02 0
0.00306352 0.0179257 0 640.103 2442.24 0
-0.000120066 0.00324295 0 -889.768 1891.37 0
-0.00319507 0.0125029 0 -949.816 1048.74 0
-0.000290892 0.00233844 0 48.5859 165.02 0
0.00159844 0.00482417 0 534.252 1286.17 0
0.00787978 0.0236538 0 1370.8 2213.64 0
0.00145057 0.0259009 0 356.7 2605.13 0
-0.000336257 0.00619409 0 -256.802 2667.84 0
-0.000333917 0.00172186 0 18.2914 70.0371 0
0.00577509 0.0216659 0 1142.19 2272.33 0
0.000667048 0.00332313 0 833.098 666.177 0
0.00248969 0.00807562 0 102.739 983.414 0
-0.00160944 0.00467215 0 -438.967 957.075 0
1.98969e-005 0.00242157 0 -4.4278 203.127 0
0.000286635 0.0021356 0 -32.1954 129.419 0
-0.00161117 0.00618199 0 -290.696 2076.41 0
7.54635e-005 0.00268391 0 -43.6531 338.576 0
0.00101663 0.00497361 0 842.142 2222.72 0
9.78423e-005 0.00320089 0 747.604 1831.04 0
-0.000282098 0.0245537 0 -94.9798 2626.59 0
0.00160534 0.0053807 0 497.936 1763.25 0
0.000645555 0.00426047 0 1230.38 2205.67 0
0.000344665 0.00191282 0 -26.3507 96.3335 0
-4.37224e-005 0.0030135 0 -2.97058 1134.76 0
0.000410526 0.00592784 0 353.123 2613.92 0
-0.00161438 0.00462874 0 -379.49 811.41 0
0.000197339 0.00307463 0 1544.62 769.317 0
-0.00787948 0.0250527 0 -1357.18 2220.82 0
0.000365567 0.000836364 0 5.69366 6.15521 0
0.000428529 0.0031113 0 375.626 177.965 0
6.29689e-005 0.00280138 0 -59.0039 454.588 0
-0.00260928 0.0115127 0 27.4522 1359.24 0
0.00511854 0.0182191 0 1271.54 2121.96 0
-0.000191506 0.0013612 0 0.716345 24.4942 0
0.000255298 0.00234631 0 -46.1439 174.067 0
7.80872e-005 0.00285378 0 -90.2173 517.23 0
-6.93966e-006 0.00361778 0 -8.45149 2369.2 0
-0.000112834 0.00273034 0 74.8091 363.76 0
-0.000151306 0.00308356 0 -1496.48 1145.32 0
0.000794921 0.00339323 0 533.407 461.039 0
0.000120559 0.00308016 0 1144.15 1366.94 0
-0.00060963 0.000994212 0 3.42349 22.6342 0
-0.000187211 0.00375918 0 -637.998 2358.28 0
-0.000179749 0.00239602 0 40.7389 193.278 0
0.000583853 0.00320912 0 429.821 285.155 0
-0.000220391 0.00307379 0 -1413.28 614.452 0
-3.20721e-005 0.00313154 0 -231.058 1706.07 0
-0.00240166 0.00829286 0 -125.499 1312.5 0
-0.000107553 0.0032363 0 -807.77 1899.52 0
0.000485775 0.00324734 0 1374.65 940.973 0
-1.6528e-005 0.00283252 0 18.7736 512.061 0
0.000388916 0.00319175 0 1517.69 919.165 0
-0.000191501 0.000101552 0 -0.15858 0.261561 0
-0.00244196 0.00780076 0 -97.2692 923.545 0
-0.000237142 0.00223825 0 35.081 151.744 0
-0.00179252 0.00511195 0 -320.532 911.918 0
7.86645e-005 0.00300926 0 58.3964 1152.42 0
-0.00578012 0.0268724 0 -1255.84 2307.46 0
-0.00101007 0.00801211 0 32.2809 2668.01 0
0.000363332 0.00337974 0 1657.29 1592.29 0
0.000391279 0.00186159 0 -26.8178 93.177 0
0.000433244 0.00317308 0 1092.19 637.98 0
0.00161612 0.00543442 0 480.831 1775.37 0
-0.00207993 0.00693738 0 -238.76 1610.23 0
0.000483914 0.00474879 0 724.011 2465.22 0
0.000802557 6.40842e-005 0 0.31742 -0.0635503 0
0.00066144 0.00330597 0 747.561 586.562 0
0.00141767 0.0197289 0 536.84 2413.66 0
-0.000651775 0.00329699 0 -743.614 569.299 0
0.000282152 0.00304241 0 203.222 58.6923 0
-0.000357054 0.00319624 0 -1660.4 1027.39 0
-0.00178284 0.00623412 0 -293.778 1874.81 0
3.8992e-005 0.00380209 0 142.032 2433.77 0
-0.00100109 0.0210667 0 -369.8 2533.44 0
0.000165033 0.00158259 0 -8.74419 44.0097 0
0.00864187 0.0174253 0 1139.83 1164.31 0
0.00315453 0.0128329 0 957.682 1424.1 0
-8.64597e-005 0.00318341 0 -691.453 1814 0
-0.000259494 0.0126492 0 173.594 2534.4 0
0.000466396 0.000355167 0 0.799646 -0.689534 0
0.000246728 0.00318708 0 1685.78 1258.02 0
-0.000724122 0.000493878 0 0.510095 2.30343 0
-0.00236534 0.0089472 0 -41.7522 1541.13 0
-0.00585899 0.0184819 0 -1389.09 1987.04 0
-0.000109395 0.00425783 0 -218.687 2517.16 0
-0.000225082 0.00307869 0 -1443.91 652.453 0
0.00116126 0.00383867 0 515.862 691.197 0
0.000146244 0.00305529 0 1543.17 925.055 0
0.000106639 0.00285591 0 -115.94 484.694 0
0.00516349 0.0142403 0 1272.9 994.557 0
-0.000547118 0.0281975 0 -130.201 2660.41 0
-0.00314055 0.0188201 0 -630.296 2412.86 0
6.39205e-005 0.0034062 0 355.722 2198.52 0
0.000746714 0.00049437 0 -0.408968 1.6659 0
0.00226648 0.0258744 0 563.709 2534.52 0
-0.000137355 0.00283875 0 108.175 374.324 0
0.00173233 0.0108179 0 -188.25 2393.67 0
-0.000334456 0.00625618 0 -253.38 2671.26 0
-0.000652252 0.00338145 0 -1221.95 1051.21 0
-6.89277e-005 0.00306466 0 -408.727 1450.01 0
0.000126795 0.00304178 0 1413.78 997.368 0
0.00478399 0.0277755 0 1001.5 2412.65 0
0.000516287 0.0229306 0 153.708 2588.82 0
5.89116e-005 0.00254342 0 -20.7899 254.438 0
-0.00795861 0.0246948 0 -1335.9 2248.34 0
0.00133689 0.00999394 0 -237.957 2477.79 0
-0.000118825 0.0220921 0 -52.9816 2577.48 0
6.34909e-005 0.0107046 0 -110.005 2673.47 0
-0.000946741 0.00381309 0 -1130 1544.96 0
0.00581241 0.0241952 0 1336.14 2227.01 0
-0.00487736 0.01991 0 -1024.54 2252.76 0
0.00170829 0.0256098 0 427.317 2585.38 0
9.98067e-005 0.00316224 0 819.424 1727.11 0
0.00308063 0.0142797 0 847.537 2013.81 0
-0.000279242 0.00307977 0 -1061.66 426.094 0
-0.000183934 0.00303725 0 -1003.61 321.583 0
7.83288e-005 0.00286324 0 -94.4997 531.933 0
-0.000440884 0.00514493 0 -545.913 2535.25 0
0.000455558 0.00477565 0 678.39 2483.75 0
0.00520625 0.0221693 0 1031.94 2397.03 0
-0.00179507 0.00722781 0 -194.91 2250.73 0
5.54873e-005 0.00266826 0 -30.7169 329.953 0
-0.00157971 0.00456195 0 -399.471 824.972 0
4.18607e-005 0.00302762 0 46.3048 1226.04 0
-0.000194972 5.19224e-005 0 -0.0369588 0.110232 0
-0.000846289 0.00342394 0 -398.336 388.127 0
-0.00105965 0.00823661 0 76.8291 2650.66 0
0.000163413 0.00479131 0 257.773 2568.89 0
-8.2874e-005 0.00288534 0 110.613 563.539 0
0.00157378 0.00552232 0 468.137 1888.66 0
-7.66839e-005 0.00293931 0 135.21 695.475 0
0.000101978 0.0109948 0 -185.856 2549.91 0
-0.000363872 0.00601296 0 -302.034 2639.24 0
0.000117978 0.00287815 0 -128.894 473.715 0
0.000219153 0.00318835 0 1594.68 1373.55 0
-0.00163196 0.00449872 0 -126.34 226.253 0
-0.000221409 0.00303399 0 -484.112 132.974 0
-0.000370966 0.0244074 0 -122.099 2618.7 0
-0.000466554 0.00315829 0 -722.022 407.837 0
0.000396164 0.00331941 0 1720.17 1368.76 0
-0.00482666 0.0238063 0 -1243.86 2249.47 0
0.00133411 0.00522841 0 582.107 2081.55 0
-0.00267568 0.00982141 0 -11.0907 915.774 0
-0.000480207 0.0219659 0 -179.987 2573.3 0
0.00177473 0.0106071 0 -171.366 2391.49 0
0.000428512 0.00597987 0 356.504 2618.42 0
0.00330832 0.0202369 0 734.413 2438.04 0
-0.00036699 0.012473 0 339.242 2570.72 0
-0.000901486 0.00347959 0 -392.219 418.931 0
-9.70158e-005 0.00294708 0 162.29 637.872 0
-0.00110466 0.0144253 0 386.87 2452 0
-0.00107199 0.0143087 0 394.339 2458.7 0
0.000113095 0.0030798 0 1050.97 1414.18 0
0.000776547 0.0117402 0 -458.902 2522.82 0
-0.000196596 0.00302496 0 -417.924 117.994 0
-0.00581483 0.0148124 0 -1383.98 1023.69 0
0.000125326 0.00308478 0 1189.08 1354.27 0
-0.00172589 0.0230235 0 -538.54 2570.31 0
-0.00123798 0.0114294 0 364.755 2474.96 0
-0.000106038 0.00301072 0 -1072.38 805.295 0
7.68012e-005 0.00277918 0 -64.1063 424.083 0
-0.000218387 0.00226751 0 34.8519 158.28 0
0.00288382 0.0120736 0 287.904 1051.97 0
0.000136685 0.00272066 0 -83.8201 343.189 0
0.00126396 0.00994364 0 -244.019 2491.03 0
0.000169734 0.00323168 0 1232.62 1710.39 0
3.33298e-005 0.00296283 0 -62.7839 848.056 0
7.38909e-005 0.00285244 0 -85.0009 518.457 0
0.00226662 0.00684142 0 187.305 1065.11 0
-4.80444e-005 0.00288948 0 70.151 607.37 0
0.000117291 0.00304527 0 1264.97 1223.22 0
0.00044057 0.00316393 0 937.971 535.688 0
0.00025781 0.000139806 0 0.319815 0.229785 0
-0.000553437 0.0115383 0 463.831 2613.85 0
0.00174054 0.0109254 0 -188.155 2383.42 0
-0.00657824 0.0304887 0 -1175.89 2392.41 0
-0.00287878 0.0309438 0 -523.247 2606.32 0
-1.74214e-005 0.00292383 0 29.9496 713.442 0
0.000417861 0.00311152 0 452.259 215.201 0
-0.000158816 0.00302837 0 -1006.61 333.494 0
0.000540608 0.00339996 0 1602.51 1375.44 0
0.00322243 0.0179545 0 702.516 2397.52 0
-0.000159371 0.0013528 0 -0.146106 23.1699 0
0.000126077 0.0159893 0 4.54888 2436.63 0
-0.00432652 0.0294311 0 -842.607 2527.35 0
0.0015673 0.00546801 0 481.668 1879.04 0
-5.0904e-005 0.00292621 0 87.8858 698.224 0
-0.000106737 0.00293051 0 154.588 554.193 0
0.00275932 0.0110589 0 20.9132 917.976 0
0.000556951 0.00340784 0 1584.66 1377.1 0
0.000399007 0.0063813 0 291.103 2673.42 0
-4.55764e-005 0.00288684 0 65.0248 602.552 0
5.78688e-005 0.00240298 0 -13.1829 196.156 0
-0.00135948 0.0128543 0 351.262 2413.55 0
0.00105587 0.00489705 0 849.743 2222.84 0
-0.00180772 0.00736401 0 -174.968 2262.13 0
8.62884e-005 0.0107917 0 -124.501 2692.78 0
-1.73838e-005 0.00299616 0 17.8641 1020.32 0
-0.000559779 0.00402893 0 -1299.97 2159.71 0
-0.000129894 0.00339006 0 -750.539 2136.81 0
-0.00108645 0.0209701 0 -382.575 2526.32 0
-0.000355289 0.00318516 0 -1616.53 977.118 0
6.75287e-005 0.00268766 0 -39.6744 343.054 0
-1.6399e-005 0.00282695 0 18.3944 503.378 0
0.000375645 0.00184967 0 -25.7443 90.2924 0
0.000226595 0.00318087 0 1634.69 1302.53 0
-0.00157723 0.0197887 0 -563.174 2405.69 0
0.000153682 0.00302297 0 872.942 267.915 0
-0.000983791 0.00376429 0 -988.166 1335.08 0
0.00320404 0.0139037 0 978.304 1883.79 0
-0.000399729 0.0051532 0 -496.569 2553.42 0
-8.43671e-005 0.0028893 0 115.288 568.487 0
0.00153091 0.0204307 0 541.799 2439.75 0
0.0023948 0.0125217 0 75.1528 1950.25 0
0.000662239 0.00525468 0 733.587 2472.46 0
-0.00103759 0.0179087 0 -350.153 2434.77 0
-0.00194218 0.00558429 0 -268.79 967.197 0
-0.000960129 0.00376594 0 -1072.07 1395.22 0
-0.000309837 0.00306474 0 -483.074 183.591 0
0.00162461 0.00920594 0 -96.9638 2399.36 0
0.00346181 0.0203111 0 739.859 2446.89 0
0.000412094 0.000782235 0 6.35928 4.19516 0
4.10836e-005 0.00290739 0 -66.3379 654.64 0
0.00107752 0.00513333 0 688.535 2200.56 0
-0.00139776 0.00696247 0 -157.791 2436.39 0
5.83714e-005 0.0023895 0 -12.7998 191.602 0
0.000501828 0.0119171 0 -443.487 2546.03 0
-2.97555e-005 0.00300349 0 21.2824 1064.27 0
0.00113092 0.00612109 0 283.55 2425.24 0
3.11664e-005 0.00285722 0 -38.882 550.83 0
-0.000756348 0.0223669 0 -266.666 2573.41 0
0.000606022 0.00322532 0 436.257 284.343 0
0.00858419 0.0213223 0 1453.99 1906.05 0
0.00228739 0.00873166 0 97.3047 1834.17 0
-0.00330691 0.0124678 0 -951.105 816.177 0
-0.00135503 0.018735 0 -491.214 2435.98 0
-0.00782909 0.0173425 0 -1448.92 1327.44 0
0.000179373 0.00168518 0 -11.1254 56.1568 0
0.000181353 0.0228576 0 46.2237 2592.29 0
0.00116853 0.00608209 0 283.63 2402.04 0
0.00534216 0.0272787 0 1142.43 2388.9 0
0.000808836 0.00340365 0 511.536 463.412 0
-0.00176706 0.00728799 0 -187.786 2262.94 0
0.000366125 0.00308127 0 356.807 151.263 0
0.000142062 0.00271694 0 -85.096 336.864 0
0.000456136 0.0264018 0 92.3317 2642.58 0
0.000149779 0.00301624 0 607.226 166.81 0
8.09965e-005 0.015903 0 1.44957 2438.06 0
3.07264e-005 0.00286231 0 -39.4194 560.394 0
-0.000148146 0.00339011 0 -841.818 2085.88 0
-0.0064378 0.0277565 0 -1296.93 2295.4 0
0.00072806 0.00532362 0 754.024 2442.99 0
-0.00065633 0.00335203 0 -1029.85 881.602 0
-0.000360464 0.000878987 0 -6.13341 5.00067 0
-9.67537e-005 0.00295742 0 168.288 656.566 0
-0.000484113 0.00948683 0 175.758 2701.75 0
-0.000565445 0.00399845 0 -1324.4 2139.27 0
0.000588623 0.00111811 0 -11.9181 38.9747 0
0.000130395 0.00304539 0 1441.34 1003.62 0
0.000107754 0.00285149 0 -114.334 477.755 0
0.00165731 0.0250536 0 424.791 2563.09 0
0.00285988 0.0119675 0 109.705 938.486 0
-9.54028e-005 0.00428588 0 -194.828 2532.1 0
-0.000124414 0.00317156 0 -1020.3 1712.94 0
-0.00814733 0.0285856 0 -1430.22 2112.25 0
-0.000216377 0.0031251 0 -1689.73 1058.34 0
0.00549751 0.012219 0 179.658 64.32 0
-0.00550796 0.012201 0 -208.015 52.2909 0
0.00287309 0.0132504 0 728.525 1821.76 0
0.000396043 0.00090361 0 5.56528 8.58955 0
-9.96587e-005 0.00294535 0 162.778 618.054 0
-0.00215947 0.00674928 0 -198.843 1258.65 0
-0.000289559 0.000893856 0 -5.52318 5.95611 0
0.00184728 0.00894591 0 -27.1649 2324.85 0
-0.000404895 0.00611192 0 -331.3 2646.74 0
-0.00085135 0.00350535 0 -797.963 810.326 0
3.34633e-006 0.00298331 0 -5.99918 953.774 0
0.00378526 0.0199019 0 781.641 2463.27 0
-0.000528492 0.024373 0 -163.347 2614.07 0
-0.000842118 0.0116133 0 434.439 2580.84 0
-0.00298148 0.0188909 0 -598.165 2448.35 0
5.9556e-005 0.0025331 0 -20.3491 249.601 0
-0.000468824 0.00121303 0 4.49172 27.7084 0
9.1581e-005 0.0171817 0 17.4368 2446.72 0
-0.00127026 0.0113439 0 363.478 2459.31 0
0.00402234 0.0130084 0 1179.85 736.248 0
-0.000363163 0.00496329 0 -502.144 2535.31 0
-0.00609252 0.0268039 0 -1264.9 2268.39 0
0.000283831 0.00172705 0 -17.7296 67.2276 0
-0.000884834 0.00452052 0 -1161.93 2181.69 0
0.000104251 0.00312707 0 893.252 1612.79 0
0.00028648 0.000908897 0 3.90762 8.45011 0
0.00627587 0.0218045 0 1225.27 2230.36 0
0.000138189 0.00301242 0 555.237 156.272 0
-8.45766e-005 0.00300744 0 -87.6779 1157.27 0