/*--------------------------------*- C++ -*----------------------------------*\
  =========                 |
  \\      /  F ield         | OpenFOAM: The Open Source CFD Toolbox
   \\    /   O peration     | Website:  https://openfoam.org
    \\  /    A nd           | Version:  8
     \\/     M anipulation  |
\*---------------------------------------------------------------------------*/
FoamFile
{
    version     2.0;
    format      ascii;
    class       volScalarField;
    location    "8e-05";
    object      alphat;
}
// * * * * * * * * * * * * * * * * * * * * * * * * * * * * * * * * * * * * * //

dimensions      [1 -1 -1 0 0 0 0];

internalField   nonuniform List<scalar> 
23640
(
1.91961e-07
2.71159e-06
2.84054e-10
0.00845451
2.65253e-06
1.71377e-06
1.17909e-06
1.41213e-06
6.42137e-06
9.15306e-07
0.00056103
2.58817e-06
1.08518e-06
2.35632e-06
1.17608e-06
1.20379e-06
5.31715e-08
0.000148699
0.000427067
6.39132e-06
0.000335239
3.71809e-11
0.000352751
3.22779e-05
2.70403e-06
1.80785e-06
5.65185e-05
1.04202e-05
3.54219e-08
1.68876e-06
8.14329e-07
0.257474
0.000313401
3.80566e-06
4.56003e-06
8.16111e-07
5.7217e-08
3.21053e-07
8.62389e-10
6.83559e-05
3.06012e-06
6.21045e-06
2.21192e-06
3.01096e-09
0.0284837
4.55366e-05
1.60785e-07
2.65935e-06
9.4607e-07
9.97548e-07
2.32616
0.000296206
5.93457e-07
1.18534e-07
0.00917079
1.13099e-08
3.28224e-06
3.07739e-06
6.74227e-07
0.00974446
7.8044e-07
6.54408e-05
0.000981724
0.000336203
9.0187e-07
0.00032561
1.27841e-06
2.84332e-06
1.3303e-05
2.28776e-06
7.71547e-05
3.76091e-06
0.000174315
7.73691e-08
1.04049e-06
0.0432148
3.65258e-11
1.02376e-06
0.000430094
0.000935026
5.30156e-05
9.28768e-06
1.48465e-06
1.52243e-06
8.28204e-07
1.26739e-07
0.00028368
1.90351e-06
3.21804e-05
1.32656e-06
8.5661e-07
3.09627e-06
2.51694e-06
0.000256967
0.000352689
1.91805e-06
0.000350498
6.48776e-08
3.04084e-06
1.71677e-06
4.00112e-06
1.19037e-07
1.25864e-05
2.18543e-07
3.67019e-06
2.78716e-07
0.000601492
1.94172e-07
3.17237e-06
3.54478e-06
6.67222e-07
0.000189286
4.42058e-06
3.21476e-06
1.72565e-06
1.11462e-07
1.0427e-06
5.88706e-07
1.6618e-07
1.8257e-06
1.25743e-06
0.245804
7.485e-08
0.294329
2.04972e-05
3.53867e-05
3.30048
6.94643e-06
1.78481e-06
3.15245e-06
1.65255e-05
5.80403e-06
1.14386e-06
3.31664e-05
3.08734e-07
6.34551e-07
0.000400451
2.76167e-06
0.00055799
0.000361653
3.34351e-06
3.1944e-06
0.000153293
0.000576962
6.90215e-05
3.52474e-06
0.000530568
0.000142299
9.12966e-07
1.30109e-05
8.24119e-07
8.73628e-08
1.44294e-06
0.00270442
1.05664e-05
1.85829e-07
1.1864e-06
4.47512e-06
7.74585e-07
5.60799e-05
1.09314e-06
4.20773e-07
7.78241e-07
7.29181e-07
6.13226e-08
4.38662e-08
0.000191977
1.93509e-05
0.000829965
5.64458e-06
2.68934e-06
1.70914e-06
1.07828e-06
2.96048e-06
0.000825855
0.00069059
3.13866e-06
3.10001e-06
0.000957882
1.99502e-06
0.028405
5.15689e-09
2.7218e-06
8.51684e-06
3.67952e-08
0.00015294
2.26289e-05
3.19974e-06
0.00581378
9.05399e-06
5.76294e-06
0.000479272
0.16
1.41449e-06
5.47227e-08
3.57374e-05
3.74224e-06
2.03086e-06
7.91024e-09
2.3479e-05
0.000493016
2.81992e-09
3.37771e-07
6.30212e-06
0.000396486
6.35719e-07
3.80878e-09
0.000332032
3.15239e-06
0.000279223
2.51197e-06
2.73739e-06
5.27857e-07
6.75396e-07
5.89524e-08
4.03531e-06
3.4718e-06
6.11407e-06
1.51694e-06
5.48583e-09
6.0708e-07
0.000512961
0.000491642
2.6757e-06
4.51936e-05
4.15746e-06
2.01327e-06
0.244632
5.33984e-09
8.65505e-07
2.2875e-07
5.66731e-08
5.41993e-06
2.58703e-06
4.28104e-06
9.73495e-06
8.85526e-05
4.07042e-06
9.31108e-07
3.01039e-05
4.64699e-06
2.66658e-07
3.0635e-06
5.93348e-06
0.0068894
7.80847e-08
3.83139e-07
4.42337e-08
0.00136169
2.69644e-05
0.0121672
1.81945e-06
1.56961e-07
0.00078297
6.0323e-07
7.24041e-05
4.91773e-10
6.05547e-08
0.00148399
0.000973977
0.0167061
6.06651e-07
4.74408e-06
3.01691e-06
2.16605e-08
2.23018e-06
3.73431e-05
2.69583e-06
5.98198e-07
0.000273586
2.27257e-06
1.6103e-08
3.24127e-07
0.00713658
5.65565e-06
4.11821e-06
3.48206e-08
0.234458
0.00038417
2.86443e-06
3.01301e-05
1.10168e-08
0.000139083
0.000622193
3.25081e-06
5.9629e-05
2.0583e-06
1.7968e-06
2.64228e-06
0.000615697
2.74794e-06
6.01491e-08
3.97933e-06
1.38826e-06
0.00055076
2.7923e-06
2.83642e-06
8.29e-08
2.15255e-06
7.99097e-08
2.03252e-05
0.000340814
0.301308
3.21741e-06
0.00038325
2.08203e-08
7.19497e-06
3.72612e-05
0.0132722
0.000133906
6.74222e-08
6.60171e-06
0.000853756
0.000349782
0.000468809
3.51021e-05
3.30184e-06
3.2522e-10
0.000360504
2.21545e-06
1.38258e-07
4.08027e-06
4.65894e-06
1.01804e-05
2.94247e-07
5.09947e-06
0.000127579
2.80185e-06
1.44337e-07
1.05197
0.00012757
1.54223e-06
8.53729e-06
1.5486e-05
5.20936e-06
3.22028e-06
6.49016e-09
2.54442e-06
2.56531e-06
2.13817e-06
4.96944e-08
9.02234e-05
1.0397e-05
0.198623
0.000312229
0.000142024
5.13853e-05
2.58355e-06
3.89415e-06
5.68784e-06
0.000960067
4.35572e-06
6.74852e-08
5.78816e-07
4.47511e-06
3.32277e-08
5.89423e-07
4.98882e-07
0.000890703
0.000528272
2.10178e-05
0.000449465
0.000350925
6.46601e-08
4.01018e-06
9.44155e-09
1.23233e-08
1.97311e-06
0.000444967
1.7847e-06
6.52265e-06
6.81792e-06
7.62231e-08
0.000472133
2.03389e-05
7.03588e-08
0.00757804
2.61165e-09
2.80201e-06
3.87076e-05
0.000201224
7.16236e-06
3.83793e-06
0.000110998
3.93043e-06
2.26172e-07
1.4734e-06
3.91665e-08
4.79578e-05
1.6623e-08
0.000274892
1.24637e-06
5.37277e-10
6.82766e-07
4.41241e-06
5.54884e-05
0.197503
3.20643e-07
1.4822e-07
4.08209e-05
1.32937e-08
1.67528e-05
3.01007e-06
1.83997e-08
1.06732e-06
1.94245e-06
0.00470343
3.96438e-08
1.4474e-06
8.55407e-07
1.91414e-06
0.00132235
0.000878994
7.94697e-06
0.000561023
2.84565e-06
5.51134e-05
1.36751e-06
6.03671e-06
5.1109e-06
0.00156357
0.00026852
2.07775e-06
1.79765e-06
1.35208e-06
2.58373e-08
0.221241
8.83051e-08
0.000443445
9.84634e-07
3.13544e-08
0.0374049
0.00025073
0.000318627
2.33378e-05
0.00032999
7.73729e-06
9.71e-07
1.80564e-05
0.00427984
1.60344e-05
0.000740006
3.36704e-07
1.231e-06
0.000130397
1.71438e-06
4.64768e-05
1.90237e-06
0.000510711
1.97914e-06
2277.58
1.32597e-06
0.000920522
1.38736e-06
8.73107e-05
2.50768e-07
1.92418e-06
7.08319e-06
0.000917598
1.18123e-06
6.0121e-06
3.20382e-06
4.2249e-06
151.507
1.29765e-06
1.83252e-06
1.29992e-06
1.32106e-09
3.02816e-06
5.75371e-06
1.56356e-05
2.29773e-06
0.0185988
4.23918e-09
4.15362e-08
6.22122e-05
2.55244e-06
14.6555
6.36745e-06
0.0251402
1.90168e-06
2.62934e-08
8.2301e-06
1.28238e-06
1.62342e-06
2.25782e-06
0.000156591
4.22868e-09
8.60127e-07
1.67188e-07
3.67326e-05
0.0125778
8.90092e-07
2.30989e-05
2.89941e-06
1.9322e-06
2.6322e-06
0.000108388
2.23411e-06
4.08638e-07
1.80674e-06
0.000876059
2.58235e-08
3.46202e-06
2.26795e-06
6.10814e-07
4.4782e-06
4.17413e-08
5.85217e-08
1.08336e-06
5.36246e-05
1.30123e-07
5.6392e-07
2.13028e-07
0.000304191
3.76996e-06
4.09442e-06
5.23294e-08
5.81706e-06
0.000639721
1.90315e-06
0.000243458
4514.53
7.35927e-07
2.71483e-06
4.47422e-06
0.000253362
6.87415e-06
0.000210306
6.994e-07
2.15368e-06
5.39058e-05
9.16749e-06
4.97837e-08
3.71978e-08
1.41632e-06
6.56926e-07
4.49259e-06
1.32329e-07
7.69569e-06
7.24759e-07
2.2498e-06
2.89015e-06
2.06633e-06
1.28643e-07
2.25246e-06
8.16043e-07
6.20691e-05
2.25976e-06
2.30534e-06
2.32682e-05
2.53923e-06
1.42466e-08
5.11652e-09
1.76041e-05
1.37281e-06
3.05395e-06
1.68281e-07
0.000420542
0.000974277
5.5028e-08
0.000212156
3.37589e-06
2.3895e-05
0.000373092
0.000341042
1.38148e-06
0.000401492
5.7851e-06
9.22609e-07
1249.3
2.53679e-06
2.89871e-06
2.46839e-07
5.35509e-07
0.000440272
1.37086e-07
1.57991e-07
3.30898e-06
1.21142e-07
0.0421871
7.50965e-06
4.92173e-07
6.84311e-06
0.000356003
3.07991e-05
4.97898e-07
3.28972e-06
1.72134e-06
0.000411478
0.00133541
2.69869e-06
3.00806e-06
5.79651e-06
6.20274e-07
0.000363479
5.89763e-06
3.1713e-05
2.3149e-06
2.77461e-06
0.000579046
0.000515611
0.00143669
7.69939e-06
1.72634e-06
5.7659e-08
3.81377e-06
9.15768e-08
3.90652e-06
0.000240991
1.8697e-06
8.29969e-07
2.78993e-06
2.75618e-06
1.70436e-06
3.92264e-06
9.39296e-08
3.77539e-06
1.15024e-07
0.229815
0.000402573
2.84555e-06
5.89752e-06
0.00139353
2.38618e-06
0.00032831
2.13166e-06
0.000469374
1.97441e-06
3.72468e-07
1.12593e-08
2.07129e-06
6.01505e-09
2.05427e-06
6.78529e-09
0.0126168
1.91103e-06
2.36723e-06
3.17241e-07
9.80893e-07
5.77643e-06
4.17687e-08
0.000190788
1.10528e-06
1.0641e-08
7.48611e-06
0.000465964
2.88271e-05
2.23845e-07
2.58414e-06
2.13356e-06
0.164938
4.86501e-05
8.87828e-07
5.99764e-06
0.00277388
2.16351e-06
0.000157709
1.1919e-06
6.57591e-08
8.02626e-06
3.71351e-05
1.07343e-07
4.96984e-06
8.39063e-13
4.99018e-13
1.48908e-07
0.110019
5.22272e-05
2.40437e-06
0.240235
3.70857e-06
2.02303e-06
2.0655e-06
0.00039267
1.01672e-07
1.44072e-06
2.87287e-06
1.85182e-07
0.000899263
0.0114444
6.66517e-06
3.09188e-06
2.93595e-09
4.20398e-06
2.06374e-07
0.00682565
3.19241e-06
4.54024e-05
0.223527
3.28493e-08
5.3875e-09
5.4605e-05
2.01887e-06
0.000230974
4.21618e-08
1.70351e-06
7.57911e-06
7.82126e-05
4.19173e-06
0.0571444
0.000387337
4.10613e-06
2.05842e-05
2.86981e-07
6.39498e-06
3.38286e-05
2.64425e-06
0.000141346
5.65268e-06
0.000257699
3.23929e-05
2.99932e-06
9.10896e-09
2.73468e-11
6.51577e-07
1.68894e-06
1.77722e-06
0.000300502
2.32415e-07
4.45558e-06
6.06114e-05
2.41823e-06
8.29655e-09
1.05172e-05
7.98724e-11
2.23146e-08
6.59212e-08
3.452e-06
0.00566388
7.22296e-06
4.10473e-07
0.000735248
0.000105953
1.50837e-07
3.87142e-06
7.2544e-10
2.9099e-06
0.000811948
7.44484e-06
7.51733e-07
3.98032e-06
0.000849522
3.91101e-06
1.8514e-07
0.000116915
4.733e-07
5.74896e-06
3.8881e-08
1.64025e-06
0.000190417
1.23115e-08
4.08488e-06
1.31111e-06
3.52244e-06
15.697
3.74936e-05
2.66559e-07
0.000275722
6.21485e-05
5.28099e-07
7.22851e-07
8.19247e-05
4.23239e-06
0.00477883
2.38789e-08
0.000650378
5.18835e-06
0.00023709
1.03284e-05
1.91516e-06
6.22613e-06
4.06699e-05
4.43372e-06
2.84038e-05
1.15998e-06
0.000647209
5.83543e-06
0.000288308
8.51188e-09
3.53875e-06
0.316101
5.36104e-10
1.02796e-08
7.05617e-08
0.0108669
2.78622e-05
1.01269e-07
7.79998e-06
4.47356e-06
5.14084e-09
9.98094e-07
8.77421e-05
2.03374e-06
9.19832e-09
8.37853e-05
3.07738e-08
0.000670562
9.06405e-08
5.88809e-05
4.93751e-06
3.37821e-06
2.97161e-06
6.61637e-07
2.26136e-06
0.00300269
1.83388e-06
0.000371899
0.000473598
1.51523e-06
5.64003e-07
3.88827e-05
2.47902e-06
0.00409894
1.10055e-07
6.35564e-06
1.07485e-06
1.40593e-07
1.18655e-06
3.30434e-06
6.37544e-06
4.46768e-11
3.54499e-07
1.10181e-05
2.4936e-08
0.000117284
1.70883e-05
5.12951e-07
2.56837e-06
8.49312e-05
1.52172e-06
3.71476e-05
3.10474e-07
0.00037291
4.29189e-06
5.05056e-06
1.47273e-06
0.000139212
1.93126e-09
1.22677e-06
0.000361617
4.21683e-06
0.000569335
5.36378e-06
1.40364e-07
2.24325e-07
0.0028372
1.5362e-06
5.13406e-05
2.79412e-06
1.81075e-06
1.12191e-06
1.89248e-06
3.00104e-07
0.000431772
1391.97
2.10413e-06
7.87638e-06
5.0981e-06
5.10137e-06
5.72361e-06
1.52739e-07
2.12228e-06
0.000105279
7.05925e-05
9.94188e-07
0.000563264
3.5387e-07
0.0528625
6.22195e-07
5.98734e-06
0.000126603
0.000726135
0.00045766
5.45571
3.49266e-08
0.000118659
2.3784e-05
2.52826e-07
1.64524e-08
3.52896e-06
1.54866e-06
0.000350955
8.66496e-07
3.9566e-06
4.35372e-06
0.000876889
1.63362e-05
0.00640306
4.72416e-07
3.77954e-10
3.33174e-05
3.29951e-06
2.0857e-07
1.35891e-06
9.88507e-06
7.64055e-09
7.60406e-07
3.35595e-09
5.18663e-05
0.00047332
4.14936e-09
2.31494e-06
8.60952e-07
0.00010412
5.54291e-10
9.47964e-06
4.49889e-07
4.14668e-06
1.72778e-07
1.03954e-05
1.64227e-08
1.04813e-06
6.36661e-06
0.000907088
1.86661e-06
8.53937e-05
0.00102215
0.000394808
0.000665934
4.8549e-07
8.64943e-05
1.72286e-06
4.37086e-05
2.04872e-08
6.95743e-07
5.42062e-08
6.07896e-06
6.1132e-07
0.00762604
0.000365712
0.000241381
3.11405e-10
3.42225e-06
0.0205288
1.19113e-05
7.4715e-07
1.10248e-06
3.60277e-06
0.0010258
1.1988e-07
1.13995e-08
1.12145e-07
1.34213e-06
0.00069268
3.99584e-06
0.00023747
6.95606e-05
7.71138e-08
5.63121e-07
3.12475e-06
0.000514453
2.17302e-07
3.94303e-07
1.56949e-06
1.59875e-06
0.000347326
2.82392e-10
1.92898e-06
1.79623e-07
5.29938e-06
7.92847e-07
0.000371509
1.95886e-07
3.17872e-06
5.55212e-07
1.7913e-06
0.00389933
9.31714e-07
1.70616e-06
0.000514394
1.3908e-07
0.000492205
5.67606e-06
2.12614e-07
1.09686e-06
3.20521e-06
4.72582e-07
5.29621e-06
0.000420413
7.53612e-08
1.8636e-06
3.31314e-06
1.92024e-06
1.82226e-06
0.000196931
2.39767e-09
1.12986e-06
9.85637e-05
0.000434572
2.33583e-07
0.00521307
3.0916e-06
3.14228e-06
0.000119828
5.16197e-06
0.00468561
6.66814e-07
4.22599e-06
1.84582e-06
3.77011e-06
2.16822e-07
0.000284664
9.01376e-06
9.56747e-07
5.90761e-05
8.38363e-06
9.16297e-08
8.66218e-09
6.20978e-09
1.70309e-08
2.34384e-06
3.31237e-07
1.13618e-06
2.87097e-05
2.92416e-06
4.83355e-07
1.15217e-06
4.77996e-06
6.88555e-11
0.000375986
0.0836788
8.19871e-09
6.21572e-05
1.15898e-05
2.39382e-08
2.04093e-06
0.00190363
3.90493e-06
1.72753e-06
0.000369569
9.77011e-06
1.21676e-06
5.30643e-06
3.17211e-07
2.59857e-06
1.28852e-06
1.43231e-06
3.56784e-06
1.80007e-07
2.99376e-07
0.000275576
6.3068e-08
1.10025e-06
2.87874e-07
2.86733e-05
7.8451e-06
6.03535e-05
0.0594232
5.32667e-06
3.34009e-06
2.56711e-06
0.032584
3.9992e-05
0.000204571
2.1155e-06
0.000261388
2.14385e-06
2.48178e-10
6.16532e-06
2.18958e-06
3.98221e-05
5.63212e-08
0.00146688
1.88773e-06
1.08788e-07
5.06058e-09
3.51036e-05
0.000129927
4.28998e-07
0.000238084
1.44281e-08
1.06881e-06
1.5935e-05
1.48754e-05
2.52784e-06
3.1953e-05
7.94955e-07
1.65997e-06
6.83473e-05
1.05965e-06
7.09401e-07
3.73484e-06
0.000112982
8.77099e-10
1.03602e-06
3.01931e-06
0.000450013
3.32463e-05
3.17357e-06
9.55378e-06
2.73768e-06
1.54703e-06
4.51427e-06
2.79005e-06
1.47403e-06
1.21588e-06
1.32475e-07
4.04751e-07
1.4538e-06
4.15574e-06
3.34749e-09
9.28706e-10
0.00465378
4.54051e-08
6.96762e-06
0.000284545
4.54551e-08
4.60261e-06
6.84827e-05
7.59168e-05
2.37869e-06
8.33311e-07
8.44847e-07
2.0913e-06
3.51214e-06
2.76006e-05
0.000182486
1.60333e-09
1.56799e-05
0.00020619
9.97895e-07
1.25457e-07
4.20882e-08
1.0114e-07
0.40612
2.28618e-06
5.12519e-06
2.28163e-06
0.0346132
0.000238634
2.61293e-07
2.69942e-07
0.000833728
0.257164
1.76121e-07
6.34987e-09
2.73129e-06
2.50776e-09
3.21666e-08
0.000387916
7.68357e-08
8.71229e-08
0.000492595
2.10169e-06
5.49414e-06
0.00435719
0.00115578
2.72699e-08
0.000101052
3.28177e-06
3.60062e-07
2.43028e-06
5.12476e-07
4.12751e-06
6.13348e-08
0.000113524
7.8299e-08
1.65416e-05
0.00039815
3.2445e-06
1.94795e-07
0.000211677
3.75277e-07
4.07302e-06
7.88575e-06
0.00022344
3.25105e-05
7.73468e-06
9.36346e-05
4.86268e-06
2.5884e-07
6.33132e-06
3.50541e-08
7.21509e-07
1.42112e-06
2.19853e-06
0.000241377
7.98056e-06
2.62709e-06
1.44407e-07
0.000373387
0.000391571
3.78114e-08
5.05613e-08
0.000373133
1.62545e-05
4.84393e-08
3.06249e-05
1.2376e-06
0.000109878
1.84678e-06
6.69947e-07
2.73216e-06
2.81864e-06
1.8889e-06
5.67776e-08
1655.35
1.02706e-06
0.000605649
2.41358e-06
5.36472e-06
0.000614831
3.71553e-06
1.32331e-07
1.5813e-05
4.34382e-07
4.05025e-05
4.72185e-08
0.000532548
1.52307e-08
3.67602e-06
7.02885e-06
3.83372e-06
1.7045e-07
1.78054e-06
8.40581e-07
0.000210313
1.1363e-06
3.25956e-09
2.5574e-06
3.50085e-07
2.02868e-06
0.000210029
0.000509568
5.5814e-06
0.0010621
0.000118508
0.0229149
7.91232e-06
5.5895e-07
2.22481e-06
0.000373149
1.99908e-06
9.03626e-11
1.44874e-06
3.32891e-06
5.12173e-07
3.59644e-09
3.37715e-06
3.00081e-06
4.44272e-06
1.11764e-06
0.000600439
9.05734e-08
8.70229e-09
3.47787e-06
0.000123412
1.47042e-06
3.21346e-09
0.000506398
3.06651e-07
6.25901e-06
2.10757e-07
1.42768e-07
2.15929e-05
6.30367e-07
1.01938e-07
5.8805e-07
6.42516e-06
0.000684391
3.06907e-06
0.000106509
9.4582e-05
8.30319e-06
2.27422e-06
2.16122e-06
2.28668e-11
3.36544e-08
2.75847e-06
5.70024e-06
1.8314e-09
4.68253e-09
3.92981e-10
3.44097e-06
0.000436509
0.000122108
0.000605585
5.7515e-06
1.92323e-06
1.89049e-08
0.000254282
3.12507e-06
0.000550834
5.2714e-07
1.3624e-06
1.29029e-07
9.33709e-07
1.85907e-09
7.56987e-06
2.85169e-06
1.46618e-06
1.06774e-06
2.0277e-06
8.64023e-08
3.12663e-05
0.000390032
1.69528e-06
3.21907e-07
3.75181e-06
1.82894e-06
5.82677e-07
9.75395e-09
7.74426e-07
5.76954e-07
1.11566e-06
3952.66
2.40725e-06
2.3565e-06
4.4141e-06
0.000376903
0.000524319
0.000434176
2.71396e-06
3.9445e-07
1.585e-05
0.000484686
1.21906e-06
3.01787e-06
1.31106e-07
4.61329e-06
1.81858e-08
2.60813e-07
7.56539e-06
6.98898e-08
3.36401e-06
3.32216e-08
0.000128381
2.27853e-06
9.80029e-06
2.75196e-06
2.31797e-06
2.20631e-06
3.10495e-06
0.000788152
2.78709e-06
2.32341e-05
2.34299e-06
0.000817803
0.000686039
9.67399e-08
1.1349e-08
1.65504e-06
4.22365e-09
3.17685e-07
3.58246e-06
7.25744e-06
0.000557113
1.40847e-06
0.00111535
3.07248e-08
4.12106e-06
6.1556e-07
4.82644e-06
4.84889e-06
2.66183
7.69851e-05
2.43236e-07
1.17807e-05
6.9095e-06
1.06396e-07
0.000102274
1.09386e-06
1.41516e-06
3.54174e-06
9.43454e-10
0.19214
2.29675e-06
0.00427549
5.02017e-07
1.88708e-07
3.46174e-08
6.34187e-06
2.7649e-06
7.83201e-06
1.58719e-07
0.000398611
0.000183603
1.55065e-11
2.23888e-08
4.49129e-06
2.04997e-06
6.70604e-07
5.46705e-05
1.68222e-06
1.07833e-05
4.61136e-06
3.40992e-05
0.000759231
4.91435e-05
2.21861e-06
2.28865e-07
1.48879e-06
1.2012e-06
8.58313e-06
1.72407e-06
1.13818e-05
5.9901e-05
5.80687e-06
5.22768e-05
8.39121e-06
2.3141e-08
1.73548e-08
3.27182e-05
6.21676e-06
4.55833e-05
1.63713e-08
0.000626731
0.000343331
9.84532e-07
7.12351e-06
8.67728e-08
3.53308e-07
1.15922e-08
2.38606e-05
2.78705e-06
2.81781e-07
1.76861e-06
5.0524e-06
2.70029e-06
0.000520204
5.86964e-06
2.11045e-05
0.00114315
1.11984e-06
7.60882e-08
1.83509e-06
5.33542e-06
1.41214e-06
1.04283e-05
1.11767e-06
2.86905e-06
5.3575e-07
1.4364e-07
5.47497e-07
1.62978e-11
1.22027e-07
3.0518e-07
0.000382252
3.97618e-08
1.75085e-06
1.51656e-06
2.1243e-06
2.06449e-07
8.63609e-08
6.06049e-09
4.99932e-09
1.84924e-06
0.000461871
1.12664e-08
1.03407e-06
0.00368919
1.12644e-06
4.85578e-06
5.17564e-07
5.72034e-06
0.000302265
3.98185e-09
0.0253175
0.00273631
1.77315e-06
4.1421e-10
243.942
8.78506e-07
3.45836e-06
5.25905e-06
0.000344587
2.80168e-06
1.19138e-06
1.07094e-05
6.98379e-06
2.70491e-06
1.49204e-07
7.35803e-06
0.00604952
8.14773e-05
2.1671e-06
0.000281518
2.06028e-05
2.74278e-09
3.43999e-06
0.000129467
0.000747745
0.00103479
8.89986e-07
1.42695e-06
0.000731355
1.40359e-06
1.20852e-06
1.96195e-06
1.79382e-05
0.000388882
3.07268e-07
5.46079e-07
1.38882e-06
1.87121e-06
0.00037773
1.77097e-06
1.49909e-06
6.39285e-06
0.000269755
8.99685e-06
2.59409e-06
0.00201299
0.0365858
0.000895926
0.0097625
2.73877e-08
1.0363e-05
3.75456e-05
2.94186e-05
4.11064e-06
6.4173e-06
1.21092e-06
1.72917e-06
0.000387633
2.04403e-09
1.03712e-05
0.000446698
1.171e-06
0.0066519
0.00169225
0.000651891
2051.12
4.18389e-07
1.67609e-06
7.27701e-06
4.3896e-06
9.96159e-05
3.06827e-05
3.76151e-08
7.51241e-09
3.53971e-06
4.40637e-06
2.9074e-06
5.2551e-06
2.66956e-06
0.000976412
5.92849e-07
2.68726e-06
5.03248e-06
1.20626e-08
3.51244e-06
0.000687176
1.05263e-06
2.30828e-07
0.000798486
4.49027e-05
1.63331e-06
1.30671e-06
2.95288e-06
3.58877e-06
3.12069e-06
1.95627e-07
8.08545e-06
8.22185e-08
0.000291634
3.24144
0.00394343
8.15142e-07
3.24079e-07
3.08326e-07
0.000144588
2.26187e-07
5.61722e-06
4.00742e-06
8.10568e-06
4.63677e-06
0.000189579
0.000362859
2.36236e-06
2.15215e-06
4.08699e-07
2.32024e-10
0.000199528
5.55451e-06
3.53567e-06
613.939
1.78743e-06
1.6616e-06
1.74245e-06
0.00514112
2.39624e-06
3.7903e-06
0.000366023
9.83518e-07
5.34861e-05
8.31334e-07
2.22365e-05
1.26596e-05
0.00449147
6.39449e-06
7.60496e-06
1.53913e-06
5.50599e-07
0.000369846
4.79527e-07
9.14821e-07
1.4011e-06
2.53172e-05
4.50683e-06
0.000912421
2.62195e-05
0.000219913
5.71284e-06
1.01378e-06
2.49762e-06
5.12373e-06
5.10923e-05
7.64557e-08
1.1961e-06
0.119871
0.000341127
1.22985e-07
0.000103402
3.07156e-08
7.30634e-06
9.54951e-07
0.000140817
6.90796e-07
2.68593e-08
0.00131963
0.00103933
7.89931e-07
3.93448e-06
0.0014151
1.0293e-08
8.97893e-06
4.18951e-06
3.87656e-06
8.51037e-06
3.2187e-08
1.15845e-06
5.10731e-06
0.000218966
2.76208e-06
2.35676e-05
0.000681045
2.08588e-05
4.14975e-10
4.09031e-06
1.51596e-06
7.63255e-06
0.0326744
1.17927e-05
0.00048823
0.0672316
5.79306e-06
2.52952e-06
1.11345e-06
0.00332769
1.42866e-07
1.59184e-06
1.82841e-06
5.63269e-06
0.00152843
3.82079e-08
4.34316e-06
6.17567e-07
0.000172024
0.000351884
2.84078e-06
0.000517735
4.66501e-08
1.30656e-06
0.000303899
0.000213763
8.22981e-06
0.134419
2.78153e-08
4.21263e-09
1.39376e-07
4.97357e-05
6.92187e-06
1.31129e-07
6.37199e-06
1.17312e-06
0.100854
2.68703e-07
6.24533e-08
1.60841e-06
2.49995e-08
0.000468898
0.00045489
1.36148e-06
0.000281088
2.70893e-06
3.65521e-06
0.000164368
3.76473e-06
3.25174e-05
4.92266e-06
6.92798e-06
1.05857e-06
5.55795e-06
6.89814e-09
5.88786e-05
1.84674e-06
3.88671e-08
2.13422e-05
2.77844e-06
9.7869e-07
7.60034e-07
2.07955e-08
0.000915964
3.37413e-07
0.00441311
1.80099e-06
1.409e-06
4.28279e-06
0.000210213
0.000389504
6.38969e-06
0.000337563
0.000402405
6.37238e-06
7.10168e-06
729.78
4.93741e-05
2.78279e-09
2.60127e-06
0.000331932
2.60674e-05
2.27093e-06
0.00159219
0.000311764
0.000840101
0.000836347
5.4322e-08
7.95339e-09
1.75283e-08
3.40179e-06
4.38407e-08
2.27353e-05
0.000489434
9.2803e-08
0.000520219
1.21406e-07
3.13576e-08
5.81793e-07
0.000361978
0.000308548
4.90021e-06
2.09049e-06
0.000461673
2.33696e-06
5.99939e-08
2.95082e-06
5.04949e-08
0.264187
1.22067e-06
0.000290218
5.2283e-05
5.57587e-06
7.6692e-05
5.63051e-06
1.67884e-07
2.73809e-06
59.8893
3.73471e-06
0.000199234
3.57322e-06
1.97364e-07
1.3921e-06
0.00906104
0.00549526
4.30043e-08
3.06062e-06
0.00037611
7.65581e-07
1.73067e-05
6.53795e-05
0.000296587
2.88151e-05
3.4425e-06
1.6216e-08
0.000381282
0.000109376
0.000779575
2.66265e-06
0.00583066
3.23026e-06
9.72816e-07
5.59007e-10
2.12688e-06
3.28339e-05
0.00078279
8.53036e-06
0.00027483
1.68742e-06
2.88596e-06
1.3412e-06
5.68502e-05
2.38188e-06
6.35035e-07
2.97156e-06
4.60808e-06
1.0871e-07
0.000463129
4.63209e-07
1.27537e-06
6.82551e-05
1.4213e-06
6.65465e-06
0.000170266
1.84965e-05
6.85027e-06
9.56624e-07
2.63522e-06
4.01074e-06
4.25283e-07
8.21211e-08
1.97702e-06
0.097404
3.75085e-08
4.56337e-08
7.20746e-06
1.11858e-06
3.62252e-06
4.92945e-06
0.000301941
5.26276e-05
3.40465e-06
2.09853e-07
1.67279e-08
0.0649555
2.66633e-06
1.12475e-06
2.93741e-06
0.000427055
1.01137e-06
0.000706588
0.000717862
1.12364e-08
0.000578899
0.000540125
2.75705e-07
1.77745e-06
0.000108181
4.34653e-06
1.52598e-06
1.07024e-08
1.27211e-08
2.78438e-09
8.15954e-09
4.27529e-09
2.19247e-09
1.52186e-08
1.09978e-08
1.28475e-08
6.03117e-06
3.34074e-05
2.11733e-07
3.42387e-08
0.000388109
2.75672e-07
1196.61
4.67415e-07
3.59421e-08
3.44626e-06
6.55735e-09
0.000460869
3.39279e-07
4.69025e-06
4.71945e-07
6.11159e-06
4.23743e-06
1.14209e-07
3.2894e-05
2.98038e-06
5.36083e-06
1.28763e-06
3.91894e-06
3.13231e-05
4.6551e-06
5.61891e-06
1.67922e-09
2.39387e-07
2.64129e-06
7.43676e-05
4.20305e-06
6.61997e-06
0.00136754
1.51872e-06
1.94887e-06
1.28213e-06
8.35119e-09
1.72738e-07
1.26685e-06
5.61569e-06
6.58567e-07
2.87503e-07
0.000433962
2.42404e-08
0.0202943
4.0089e-06
5.37167e-05
0.000290655
1.6358e-06
0.0179027
2.10735e-05
3.17476e-06
2.52033e-09
1.9965e-05
1.81349e-07
0.000384899
0.0013849
1.60528e-06
3.07114e-06
1.67785e-06
8.44766e-07
0.0133488
4.54833e-06
2.03112e-06
3.20989e-06
9.44506e-05
3.52688e-06
4.08727e-08
4.79922e-05
4.01304e-07
1.8435e-06
5.34311e-06
3.27483e-08
1.2004e-05
1.99197e-06
2.01958e-06
1.15886e-05
7.09453e-06
1.77849e-06
0.000300609
4.36434e-06
0.000778878
0.0167542
0.000467488
0.000594942
4.22057e-06
1.54816e-08
4.51731e-06
0.000327896
5.68457e-07
4.14572e-07
1.93613e-06
2.44148e-06
7.54249e-05
5.59625e-09
4.87903e-08
4.30533e-06
0.000375226
5.81458e-05
1.11684e-06
0.000358112
43.9517
4.89867e-07
2.49028e-05
0.00026139
0.000281027
0.000349475
3.55125e-08
0.0145791
3.26397e-06
2.21827e-06
0.00038148
0.00314232
1.00282e-06
7.83362e-07
1.86246e-06
4.23874e-13
4.436e-06
8.53461e-06
8.16399e-08
6.08489e-07
1.77766e-09
0.000122262
9.80449e-08
3.05548e-06
2.19975e-05
1.14341e-06
9.19365e-07
8.2238e-07
4.5192e-06
0.000755168
4.949e-06
8.55664e-08
4.26752e-06
8.68639e-07
7.93523e-06
1.30793e-05
7.47279e-07
0.000446925
6.75534e-07
4.07156e-06
1.18141e-06
3.2038e-07
1.56835e-07
1.47803e-05
1.70076e-06
0.000378528
30.1538
1.37082e-06
0.000271389
1.79824e-06
6.02709e-06
1.0024e-06
4.20912e-07
2.77301e-06
1.22115e-06
0.000176429
2.08459e-06
6.44878e-05
3.7739e-06
7.50434e-06
3.92924e-06
2.76287e-06
0.00087514
1.44231e-06
2.38069e-06
1.19355e-07
1.87558e-07
3.21467e-05
1.05936e-08
1.85357e-06
2.28371e-07
6.51271e-06
6.06493e-06
1.33446e-06
0.000189724
6.99935e-06
1.94138e-06
8.90107e-05
0.00308895
3.20168e-06
5.93372e-06
4.99412e-05
2.60419e-05
3.96022e-05
0.000818454
0.000446465
0.000235844
8.33767e-09
4.63889e-06
5.32928e-13
0.000569563
2.26523e-07
3.0018e-06
5.58917e-06
1.94892e-05
8.72649e-06
0.00013422
2.96836e-06
5.47184e-06
0.000152721
1.0413e-05
0.000434978
7.93339e-06
9.65567e-05
0.000355181
2.65682e-07
2.48103e-06
1.22007e-06
2.28606e-05
1.33638e-07
1.41996e-07
1.01389e-06
1.24624e-06
4.30487e-06
9.34096e-06
3.74534e-07
4.30496e-07
2.33592e-06
4.68696e-06
1.78493e-08
1.44645e-08
1.78265e-06
2.86996e-06
0.000139392
2.48638e-05
8.70788e-06
6.76368e-07
0.000229985
0.000224904
4.5561e-06
0.000342294
5.74988e-06
3.63052e-06
0.000432098
0.00256183
0.553909
1.07723e-06
4.021e-05
0.000184688
4.23972e-06
0.000236077
0.000319416
3.66481e-06
2.69365e-07
4.92528e-07
6.61939e-07
1.01124e-08
4.03126e-06
2.80072e-08
1.74801e-07
0.00940052
0.00482722
2.12062e-06
0.000716238
4.27027e-06
1.50264e-06
6.20106e-05
1.02489e-06
1.05244e-05
0.00212785
4.07489e-06
4.58321e-06
9.18677e-07
1.08687e-06
0.136607
7.41638e-06
9.81453e-05
1.05341e-05
2.75902e-06
2.54251e-07
8.10267e-08
4.40337e-06
0.000394725
9.23508e-07
4.38754e-06
9.92763
1.90738e-09
0.000175903
1.52012e-06
0.00024432
1.23236e-06
8.32988e-05
1.6442e-05
3.72691e-06
8.57204e-07
3.7968e-06
2.52186e-06
0.00081811
1.00029e-06
8.51597e-07
9.067e-06
3.65787e-06
8.53114e-05
2.05064e-06
3.87474e-06
8.45515e-08
6.21612e-08
0.00126786
0.000402331
7.08251e-06
4.32122e-06
4.34849e-06
3.73692e-06
5.68418e-06
1.07564e-06
0.000200695
4.92461e-08
3.26981e-06
0.000254545
5.07768e-06
0.0683086
5.66976e-06
3.67842e-06
7.25014e-09
0.00268523
4.03966e-06
9.68746e-07
7.74479e-07
1.6419e-08
6.63783e-06
1.02322e-06
4.52567e-06
8.03923e-06
6.46589e-07
8.02802e-06
3.17644e-07
8.05636e-07
1.33833e-06
5.16973e-07
8.77336e-07
3.23088e-06
3.8742e-07
4.95705e-08
5.6787e-08
5.73703e-06
1.13704e-06
3.08613e-07
0.000291132
2.01823e-06
1.28644e-06
0.00550909
1.44454e-05
5.09147e-07
0.000799587
0.00520287
6.63364e-06
1.90332e-06
9.35483e-05
0.00262137
8.16695e-07
0.000117704
0.00725475
7.47995e-06
0.00750458
5.29679e-09
2.89551e-06
7.65559e-09
6.84021e-08
4.44069e-06
6.07548e-05
9.45909e-08
3.7087e-06
7.54723e-06
0.000205343
3.36503e-06
1.81354e-08
2.28617e-06
4.27628e-06
1.78267e-06
1.72103e-09
3.8968e-06
1.3561e-06
5.77109e-08
2.05857e-06
9.91345e-08
0.000326243
0.00059753
6.95955e-07
4.57222e-08
5.04385e-05
1.6032e-05
0.000283255
6.31433e-05
4.21019e-06
7.5276e-06
8.14508e-07
5.28709e-05
2.65995e-07
2.35942e-05
2.62776e-06
1.99474e-09
1.60719e-06
1.93493e-06
2.25313e-07
2.08587e-06
1.99203e-07
5.17039e-06
0.00127672
2.44739e-06
1.95783e-06
1.01454e-06
9.82053e-06
2.54889e-06
3.98396e-06
0.116927
3.04208e-06
2.62322e-06
1.26311e-07
1.3414e-06
9.19703e-07
4.57793e-05
2.25285e-06
0.00191055
0.00293268
0.00132915
4.72638e-08
0.000114665
2.28504e-08
1.52245e-08
7.44734e-06
2.84382e-08
1.88645e-06
3.76832e-06
1.26776e-06
3.06204e-06
4.02277e-06
8.45197e-08
2.69764e-06
4.84654e-08
0.00628031
1.0063e-06
3.88627e-06
3.30756e-08
8.95437e-05
3.51519e-06
1.42532e-06
0.00176166
0.00879798
7.72306e-10
0.00180747
6.84537e-08
1.4131e-06
8.21565e-07
3.63016e-06
2.00039e-06
1.69411e-06
1.79885e-06
0.000696143
1.14654e-06
3.23898e-06
1.432e-05
3.17299e-06
3.36305e-08
2.23264e-06
2.96495e-06
3.69607e-06
0.000796606
5.48038e-06
1.14938e-06
0.000201473
8.3476e-07
6.07734e-06
2.68716e-06
5.63437e-06
0.00013354
0.000586951
4.20139e-08
4.42434e-05
3.027e-08
8.44356e-07
0.000118057
1.14028e-05
3.82965e-06
2.41004e-08
4.79186e-07
2.69779e-06
3.68218e-06
1.30385e-05
8.26344e-05
4.06334e-07
1.37835e-06
2.7339e-06
3.84036e-06
9.04448e-05
1.50845e-06
2.94187
2.06895e-05
1.74597e-08
7.34006e-06
4.22219e-07
1.20144e-09
2.63076e-06
1.00008e-08
2.65776e-07
0.00044023
2.30536e-06
8.02772e-06
0.0564619
3.40449e-07
0.000357079
0.00810803
0.00043495
6.0086e-06
3.68998e-06
2.69673e-06
1.64102e-07
0.000112043
4.4046e-08
4.30796e-07
2.23647e-06
1.76009e-06
6.79664e-05
3.30096e-06
5.41554e-06
1.48013e-06
0.00188681
0.000372136
1.69571e-06
2.86866e-06
3.51931e-06
1.1858e-07
7.39108e-13
8.91705e-05
5.34837e-08
6.59851e-13
6.67772e-07
9.42932e-07
7.49677e-07
5.51324e-06
8.7583e-05
2.90266e-06
3.7501e-06
7.74105e-07
7.12328e-06
5.04496e-08
4.72356e-06
1.8775e-05
3.04102e-06
1.55298e-06
2.52509e-07
5.96386e-05
5.89221e-08
4.47991e-08
1.23002e-07
0.00100904
8.91951e-05
8.36604e-06
3.12497e-05
0.000815738
5.45826e-06
1.22198e-08
0.000437325
2.6813e-07
2.5583e-07
2.91039e-08
1.94747e-07
0.000119969
0.000151102
5.53884e-05
6.62173e-06
8.88031e-07
4.10595e-07
2.49554e-06
2.35488e-06
5.02196e-08
2.87242e-05
1.0387e-05
0.000268485
0.000637205
2.93348e-06
5.5173e-07
1.68357e-09
0.000236685
2.85031e-06
5.93062e-06
2.67077e-08
1.75287e-07
5.55482e-06
0.000292139
0.000322336
2.23595e-06
3.60721e-06
9.70406e-05
1.10552e-06
6.2191e-07
0.00113967
2.48927e-08
1.14457e-06
0.000390118
0.00482648
1.29823e-07
0.000448103
1.26351e-06
0.000262812
4.65727e-08
3.86819e-08
5.48698e-07
2.24664e-06
1.15688e-06
0.00139014
2.57342e-06
2.9154e-09
1.53542e-06
3.24219e-06
1.76573e-06
2.62752e-08
1.04155e-06
4.1932e-06
5.21179e-06
3.21275e-07
0.00017511
1.03156e-06
5.38513e-07
1.45921e-06
3.96e-07
1.29941e-08
0.000587942
1.82987e-07
5.07351e-06
1.78998e-11
4.05643e-06
5.88343e-05
9.64352e-09
0.000480841
0.000416034
0.00513609
4.48331e-09
1.41305e-06
4.67367e-07
4.38938e-08
4.78917e-06
2.35522e-06
3.76307e-06
0.00512974
2.90172e-08
2.03648e-06
2.67554e-06
2.42715e-06
2.8883e-06
9.00572e-07
0.000256517
2.46305e-06