/*--------------------------------*- C++ -*----------------------------------*\
  =========                 |
  \\      /  F ield         | OpenFOAM: The Open Source CFD Toolbox
   \\    /   O peration     | Website:  https://openfoam.org
    \\  /    A nd           | Version:  8
     \\/     M anipulation  |
\*---------------------------------------------------------------------------*/
FoamFile
{
    version     2.0;
    format      ascii;
    class       volScalarField;
    location    "8e-05";
    object      epsilon;
}
// * * * * * * * * * * * * * * * * * * * * * * * * * * * * * * * * * * * * * //

dimensions      [0 2 -3 0 0 0 0];

internalField   nonuniform List<scalar> 
23640
(
7.13619e+08
8.11355e+09
3.70854e+07
4.06567e+10
4.89884e+09
3.7902e+10
3.20572e+09
2.49318e+09
2.16676e+10
1.04747e+11
1.27705e+10
1.0442e+10
5.14857e+08
4.44423e+09
1.15624e+11
2.73428e+10
3.15778e+08
5.70573e+10
2.42858e+10
3.05655e+10
1.6416e+10
1.76183e+08
1.65659e+10
4.69341e+10
3.43775e+09
4.77499e+09
5.02709e+10
2.96409e+10
1.50156e+08
1.27697e+09
3.33213e+08
1.60535e+10
1.66279e+10
1.95168e+10
3.37178e+10
1.11583e+11
3.25021e+08
2.26378e+08
6.73818e+08
2.61608e+10
1.49059e+10
1.96882e+10
3.87384e+09
6.10654e+08
4.0983e+10
8.24736e+10
4.34867e+08
1.21487e+10
1.02361e+11
2.43367e+09
1.62507e+09
4.24874e+10
1.42768e+11
2.82026e+08
3.98864e+10
1.46639e+11
3.69167e+10
7.55448e+09
1.82653e+09
1.2588e+11
3.24092e+08
5.87169e+10
1.58897e+10
3.89933e+10
3.29109e+09
3.96718e+10
2.27071e+10
4.07221e+09
1.29203e+11
3.90062e+09
3.01638e+10
1.94342e+10
3.1168e+10
2.67842e+08
2.44479e+10
9.35826e+10
5.66857e+11
4.95352e+08
2.36875e+10
1.40752e+10
8.70969e+10
7.21554e+10
4.3675e+09
4.56968e+09
3.0753e+09
1.61132e+11
4.36021e+10
7.19609e+10
6.73636e+10
9.5646e+10
2.50285e+09
7.1298e+09
8.63756e+10
2.63879e+10
4.05018e+10
8.68839e+08
3.72487e+10
9.33991e+10
7.03228e+09
9.90439e+10
6.39588e+10
2.83631e+08
6.70344e+10
3.15163e+08
3.29076e+10
2.14533e+08
8.3836e+10
3.8275e+08
1.11722e+10
7.25591e+09
2.78455e+08
2.97937e+10
1.16854e+10
1.57128e+10
2.22754e+11
1.64338e+08
1.1155e+11
2.45899e+08
6.64552e+08
1.34133e+09
1.12503e+11
1.11143e+10
9.56083e+10
1.05854e+10
5.17345e+10
3.42703e+10
1.19283e+09
1.22109e+11
3.72034e+10
1.74664e+10
3.11122e+10
5.42988e+10
5.10776e+08
5.32682e+10
3.38641e+08
1.02946e+11
1.41083e+10
3.78231e+09
1.29498e+10
3.4308e+10
7.12771e+09
3.83109e+10
3.41482e+10
1.26875e+10
4.8567e+10
5.6287e+09
1.24795e+10
1.93559e+10
2.76836e+09
1.38208e+11
2.65942e+09
4.06802e+10
4.2137e+09
2.01102e+10
4.27195e+10
1.85778e+08
3.24525e+09
1.52256e+10
1.46922e+10
5.03982e+10
9.11341e+10
1.53868e+11
1.17976e+11
1.72006e+10
1.39785e+08
1.20605e+08
4.20358e+10
1.39375e+11
7.48994e+10
5.30721e+10
1.13844e+10
2.0561e+11
2.48679e+10
1.08767e+10
2.62217e+10
2.84513e+10
1.68982e+10
1.75313e+11
1.43552e+10
1.68052e+09
3.99253e+10
1.76665e+11
3.6881e+09
3.03601e+10
1.96531e+08
5.99195e+10
4.83714e+10
6.40588e+10
1.95087e+11
3.29757e+10
1.86033e+10
1.2946e+10
1.62097e+10
4.03168e+09
1.71607e+08
3.30581e+10
3.33295e+10
7.12059e+10
1.37611e+11
7.61755e+10
1.72965e+10
2.10561e+08
2.72798e+08
1.89586e+10
2.12251e+10
1.76129e+09
1.52634e+11
1.67232e+10
1.58492e+11
3.73115e+10
4.7497e+09
4.13064e+09
8.47603e+08
1.84904e+09
6.85322e+10
7.65612e+09
1.37434e+10
3.02696e+10
1.23736e+10
2.47626e+08
8.69849e+08
1.29488e+10
1.71727e+10
1.09865e+10
4.20278e+10
1.09412e+10
6.56954e+09
1.17573e+10
2.86836e+08
2.54515e+09
7.44539e+08
1.83584e+08
2.57939e+10
4.54999e+09
1.50011e+10
6.81533e+10
2.80886e+10
7.89218e+09
2.87994e+09
1.34356e+11
6.53165e+10
1.76491e+11
1.49664e+10
1.69801e+10
3.58408e+10
2.14722e+08
1.53543e+09
1.3205e+11
1.37309e+10
4.25247e+10
1.11054e+11
5.94294e+09
4.2943e+08
2.80331e+10
1.53911e+09
2.55609e+10
1.36383e+08
2.01297e+08
8.76992e+10
9.95846e+10
4.81752e+10
2.99534e+08
5.56135e+10
1.03872e+10
1.96378e+08
3.84547e+09
4.85548e+10
7.4074e+09
1.48251e+09
4.59003e+10
6.60144e+10
8.87069e+07
1.84742e+11
1.61763e+11
1.22898e+11
1.93517e+10
2.08801e+08
1.1781e+10
3.72086e+10
1.06457e+10
3.61276e+10
2.08539e+08
6.63377e+10
1.22724e+10
1.86511e+10
6.39764e+10
9.13265e+09
9.76255e+10
1.14139e+10
1.23519e+10
1.39862e+09
2.58859e+08
7.52681e+09
1.35417e+10
1.3083e+10
3.75708e+09
1.42253e+10
2.837e+08
5.84018e+09
5.49468e+08
1.42177e+11
3.79041e+10
9.45888e+09
6.88863e+09
1.46491e+10
8.69569e+07
5.70548e+10
7.24849e+10
4.45309e+10
3.56713e+10
1.78904e+08
9.53767e+10
2.59559e+10
2.46406e+10
1.78086e+10
4.91519e+10
6.09539e+10
6.20175e+07
3.96808e+10
2.76659e+10
9.69107e+08
1.88553e+10
3.45836e+10
2.86918e+10
3.297e+08
1.10317e+11
2.57538e+12
3.82954e+09
1.4181e+09
3.94584e+09
7.81138e+10
2.39017e+09
3.11075e+10
3.99602e+10
3.81631e+09
6.48447e+09
1.47287e+11
5.97844e+10
3.61973e+09
5.67825e+09
1.72821e+11
5.16016e+10
4.1463e+10
1.41866e+10
1.44471e+10
6.0137e+10
6.15076e+10
9.44275e+09
1.07005e+10
2.50796e+10
9.37562e+10
1.05421e+11
1.9912e+08
2.38305e+08
3.26278e+10
1.00091e+08
2.05522e+09
2.7465e+08
1.63356e+10
1.28249e+10
4.76162e+10
1.45392e+10
3.49258e+10
5.27212e+08
7.74159e+09
9.47738e+07
7.30103e+07
7.28107e+10
2.36212e+10
1.36692e+09
1.76316e+11
1.84991e+11
1.83371e+08
1.74538e+10
5.03099e+10
1.98923e+08
2.66619e+11
1.15558e+08
3.92724e+09
4.64683e+10
2.95374e+10
1.80143e+11
7.08626e+09
4.78778e+10
7.67979e+09
2.49768e+08
1.09447e+11
1.05896e+08
2.98554e+10
1.1486e+08
4.71491e+10
5.20947e+10
3.28559e+11
1.40622e+11
5.12119e+10
3.13446e+10
1.35885e+10
2.76412e+08
4.22292e+08
6.78723e+10
1.92329e+09
1.21142e+11
4.62566e+10
9.06126e+07
4.96465e+08
5.98966e+09
8.02487e+10
1.589e+08
1.4411e+11
1.51817e+10
6.84376e+10
1.35937e+10
4.3902e+10
2.57987e+10
1.23384e+10
1.40635e+10
6.53775e+10
6.03852e+08
2.85878e+10
2.27213e+10
8.00403e+10
4.74449e+10
5.87044e+09
7.1403e+10
1.09767e+11
1.02321e+08
1.33662e+10
9.80025e+10
1.4446e+10
6.00542e+09
2.60146e+08
4.07053e+10
3.3642e+10
1.75316e+10
3.82483e+10
1.4184e+10
1.73361e+11
1.29244e+11
1.64087e+11
3.94884e+11
4.06786e+10
1.76626e+10
1.09467e+11
1.24361e+11
4.78384e+10
1.46028e+10
6.58988e+10
8.1417e+10
1.55427e+10
7.38939e+10
2.43339e+06
2.2942e+10
2.78357e+10
5.01516e+10
8.74432e+10
2.85136e+08
8.45094e+09
5.51675e+10
1.27309e+11
1.17311e+11
2.78253e+10
1.81544e+10
1.31468e+10
2.88056e+07
1.47777e+11
1.356e+09
1.24649e+11
1.70383e+11
7.61625e+10
1.92847e+10
2.9145e+10
1.26263e+09
4.59334e+10
9.49668e+07
1.3229e+09
6.63134e+10
5.18632e+09
3.22961e+08
9.25491e+10
1.33067e+11
9.74743e+09
2.26302e+08
2.18169e+10
1.23919e+11
1.0552e+11
1.51188e+11
2.21984e+10
2.58019e+08
3.49156e+08
3.88287e+08
4.57235e+10
2.6099e+11
4.77945e+08
4.93365e+10
3.85795e+09
5.84104e+09
8.24807e+10
8.92241e+10
1.66925e+11
3.07073e+08
8.28842e+08
1.22246e+10
1.05164e+08
5.99063e+09
1.02189e+09
1.57251e+09
5.0204e+10
1.33442e+08
2.5384e+08
5.09402e+08
7.48779e+10
9.1322e+08
1.48495e+11
1.58871e+11
1.82538e+10
1.36137e+10
1.26096e+10
1.60992e+08
1.60685e+10
1.20408e+10
7.35587e+10
5.08237e+10
1.23739e+06
1.06662e+11
1.13038e+10
1.19948e+10
2.05767e+10
3.05148e+10
2.87177e+10
2.12292e+09
6.86357e+09
3.83876e+10
9.69998e+10
9.63654e+10
1.74958e+11
6.21526e+08
1.44011e+11
5.35799e+10
3.24738e+08
4.77315e+10
9.15289e+09
1.07349e+09
4.03975e+09
5.7353e+09
2.69365e+08
4.03888e+09
1.10145e+11
4.80977e+10
2.08899e+09
2.12707e+09
1.47874e+11
4.62853e+09
1.89833e+11
2.57016e+08
1.64304e+11
7.77697e+08
4.6813e+09
1.8716e+11
1.40137e+10
2.43181e+10
5.21468e+09
1.65274e+10
6.33568e+09
7.80834e+10
3.14999e+10
1.72046e+10
2.09766e+10
1.95115e+10
1.79942e+11
1.27946e+11
4.36214e+06
4.57068e+09
3.76712e+09
1.94652e+08
2.34314e+08
2.38367e+10
9.86863e+10
1.61407e+11
4.40861e+10
3.9243e+08
3.72404e+10
5.50305e+09
2.66135e+08
3.12778e+10
2.40485e+10
5.93332e+10
8.37418e+09
4.42764e+10
4.69029e+09
1.92381e+10
1.41347e+10
3.08641e+09
1.58446e+10
1.47565e+10
1.62525e+09
3.91219e+10
2.88333e+10
5.48915e+10
1.29248e+09
7.86714e+10
1.22791e+10
1.52797e+10
1.03734e+11
9.85938e+10
1.36912e+09
1.33562e+11
6.66382e+10
9.31219e+08
1.27535e+10
2.11787e+10
1.1503e+09
2.82562e+09
9.71466e+09
2.02569e+09
4.12829e+10
5.83259e+10
1.44201e+11
6.98233e+09
2.59168e+08
1.36985e+10
2.15158e+10
1.40119e+10
2.33515e+10
1.44095e+10
5.14871e+09
4.18527e+10
9.55342e+09
1.69617e+10
9.5641e+08
1.08186e+11
1.01378e+08
7.89703e+09
1.59363e+09
1.68408e+09
1.63724e+08
4.66962e+10
8.53089e+08
1.11492e+10
2.79718e+08
1.28214e+11
1.55479e+10
9.67886e+10
1.71748e+10
4.68519e+08
1.57342e+11
5.60824e+09
1.72963e+10
5.56836e+10
2.35108e+08
9.62884e+09
1.05615e+11
1.71572e+10
5.81356e+10
2.67258e+09
2.95749e+10
4.55771e+11
1.61728e+11
2.18742e+10
5.44713e+08
6.8742e+09
2.11906e+10
8.87635e+10
1.54229e+08
1.19916e+11
2.69036e+08
4.73573e+08
1.47277e+09
2.499e+10
5.12695e+10
2.64478e+10
1.17907e+10
6.94618e+09
6.72956e+09
1.19165e+11
3.60012e+10
2.54708e+08
6.28306e+08
4.35851e+09
3.95173e+08
1.23082e+10
1.37465e+11
4.09694e+09
4.72388e+09
4.79564e+08
1.4858e+10
2.66e+08
6.22119e+10
1.842e+10
9.57152e+10
1.25038e+10
1.4279e+08
1.65377e+11
1.09077e+11
4.53221e+09
5.27354e+10
2.7348e+08
8.56217e+10
4.91138e+10
2.5673e+10
1.12542e+10
7.3912e+10
3.68385e+10
2.19924e+10
5.82481e+10
3.34547e+08
2.43782e+10
3.47674e+10
6.15764e+10
2.00759e+10
4.15359e+10
2.57638e+10
3.4653e+10
1.54172e+11
2.68533e+08
2.7086e+08
1.10337e+11
5.95338e+10
7.23083e+09
1.80528e+10
9.87959e+10
4.31367e+10
6.51603e+10
6.26958e+10
1.91718e+08
4.08556e+10
1.95598e+07
2.16024e+08
1.96255e+08
2.39685e+10
3.20505e+10
7.13264e+09
2.75385e+08
1.28901e+10
2.16486e+10
1.52459e+08
1.0436e+10
2.06816e+11
1.40929e+10
1.29781e+10
6.97603e+09
8.65689e+09
1.50715e+10
1.30515e+10
1.50311e+11
2.72462e+08
9.07305e+10
2.94676e+08
1.83305e+11
1.31424e+08
9.73916e+08
5.09916e+10
7.13061e+07
3.45792e+09
7.62601e+08
3.8793e+09
3.00466e+08
4.47381e+10
4.37246e+08
4.50648e+10
2.83223e+10
2.21283e+08
2.47806e+09
9.96391e+10
2.06528e+09
6.30856e+10
1.01317e+11
1.20212e+10
1.99766e+10
3.3646e+10
3.99586e+10
9.58313e+10
1.69308e+10
8.93959e+10
1.21505e+10
6.06896e+10
5.37083e+08
4.91851e+10
3.17147e+09
4.5578e+10
1.95732e+11
5.1682e+10
1.04876e+10
9.49308e+07
1.98262e+11
9.25508e+10
2.92521e+11
5.59156e+10
1.93167e+08
3.22269e+10
1.17244e+10
1.14732e+08
1.22858e+11
4.59784e+10
9.89359e+08
2.9655e+08
2.51991e+10
5.95946e+09
1.49048e+10
4.40859e+08
2.75311e+10
1.16521e+10
5.69576e+10
3.77397e+09
2.6473e+08
6.81926e+10
3.89606e+11
7.60824e+09
2.37798e+10
1.31073e+10
9.1818e+08
1.55974e+11
4.45921e+10
4.91488e+09
9.15027e+10
1.26972e+11
2.81656e+10
3.03643e+09
5.09923e+11
1.13928e+11
1.2489e+10
3.8356e+09
3.68463e+11
3.12769e+11
2.97783e+10
1.15017e+11
2.09264e+10
3.20022e+10
3.0164e+08
5.94969e+10
9.72584e+10
7.55084e+08
4.37987e+10
3.05606e+08
3.6492e+10
1.185e+10
3.96272e+09
2.26829e+10
4.65072e+10
8.91336e+07
6.15235e+08
3.65956e+10
1.92813e+10
1.3482e+10
1.80861e+10
1.49299e+08
2.5729e+08
2.07678e+10
7.71009e+08
2.97409e+10
4.67203e+09
1.60505e+09
4.65312e+08
1.23917e+11
1.56489e+09
2.62699e+10
3.93692e+06
8.11207e+09
5.86343e+10
1.32245e+10
7.26768e+10
4.12669e+10
5.81799e+08
1.25752e+09
2.11652e+11
5.50919e+10
4.83691e+08
1.36458e+10
2.52704e+08
3.31275e+10
1.16059e+11
1.24974e+11
2.11241e+10
1.66625e+10
1.38981e+10
7.72816e+08
1.97852e+08
2.03535e+12
2.15842e+11
3.28442e+08
1.10967e+08
4.9134e+10
1.48477e+09
3.72255e+10
3.62575e+08
1.55495e+11
2.81946e+10
1.40917e+10
3.16342e+10
6.00275e+10
2.14401e+09
1.64899e+08
5.21134e+10
1.28768e+10
1.29922e+11
9.19132e+10
3.99453e+10
1.5945e+11
9.3313e+09
2.90141e+08
3.91342e+10
1.79921e+10
1.77869e+11
4.05648e+09
3.52818e+08
8.32249e+10
7.37554e+07
5.74108e+10
9.64215e+09
1.12094e+10
1.78007e+08
1.39661e+11
1.18324e+08
1.06579e+11
4.85761e+10
1.05119e+12
8.81071e+08
5.33848e+10
5.2566e+10
2.01189e+10
1.23519e+10
5.97439e+10
5.15232e+10
1.3369e+09
3.18114e+10
8.30636e+07
1.31331e+11
1.66276e+08
3.5006e+09
1.57911e+11
5.23784e+11
3.70597e+10
2.72564e+10
3.1086e+07
2.3778e+10
4.57775e+10
6.7702e+10
9.91743e+10
1.12115e+09
6.98479e+09
1.27278e+10
1.68752e+11
7.29043e+07
1.30002e+11
4.18054e+10
1.23219e+10
4.33464e+10
1.64897e+10
9.11284e+10
1.84919e+08
3.05493e+08
1.79214e+10
1.30083e+10
2.01132e+08
1.03598e+11
6.04452e+09
1.55484e+09
7.30295e+10
5.34958e+08
7.57814e+09
2.9456e+08
4.57139e+10
2.19261e+09
2.134e+10
1.27828e+09
1.24308e+10
9.1363e+09
6.52913e+09
3.48878e+11
4.23544e+09
4.79853e+09
1.5115e+10
5.6321e+08
1.29327e+10
4.36143e+09
1.02542e+11
5.25501e+08
1.97013e+10
1.02587e+11
1.83863e+10
1.65343e+10
1.46906e+11
6.77877e+09
1.1487e+10
7.41061e+09
4.91478e+09
2.86226e+10
2.13443e+08
6.76428e+08
2.25202e+10
2.4587e+10
1.18831e+09
5.78686e+10
3.86621e+09
1.9422e+10
2.18434e+10
2.81151e+09
3.003e+11
1.7562e+09
8.2631e+09
8.47949e+10
3.00894e+10
1.22206e+09
4.59624e+10
3.40437e+10
8.79588e+10
6.02876e+10
9.68317e+10
2.36963e+08
1.96121e+11
1.68294e+11
1.76135e+08
1.06246e+09
2.66182e+08
3.02525e+09
4.35758e+10
4.67031e+10
3.08721e+09
3.32155e+09
2.3103e+10
2.9817e+11
2.32243e+10
3.15556e+10
8.73391e+07
2.8031e+10
3.51665e+10
3.38375e+08
8.47425e+09
8.09231e+10
2.52099e+11
5.34068e+09
3.01448e+10
3.89939e+10
3.82743e+09
2.30998e+10
3.23965e+08
1.43379e+09
5.54477e+08
9.05839e+10
1.72755e+09
4.88382e+08
1.34508e+09
1.55591e+10
5.1971e+11
3.08754e+09
3.43986e+08
9.29422e+10
4.97618e+10
6.70867e+10
3.11741e+10
4.71039e+10
8.60977e+09
8.74005e+09
4.34359e+10
3.61489e+10
2.78281e+10
1.22108e+09
4.64025e+10
2.60844e+09
3.44741e+11
1.64057e+10
2.18877e+10
4.75554e+10
5.57664e+08
1.43534e+10
5.22138e+09
1.58029e+09
2.26327e+08
6.21239e+10
7.09143e+10
5.99553e+10
3.28842e+10
1.14812e+08
1.25675e+11
2.51254e+11
2.1821e+11
3.49759e+09
5.23514e+10
3.1689e+08
6.03248e+09
2.7292e+10
4.96276e+08
1.35741e+11
3.37824e+10
5.52473e+10
1.97224e+11
1.08843e+11
7.44027e+10
2.21693e+10
8.00518e+10
1.74596e+10
2.87602e+10
3.13495e+09
1.22427e+09
4.60447e+10
2.06389e+11
1.4441e+09
6.02973e+08
3.39071e+08
1.07018e+11
4.15857e+09
8.07253e+09
1.02392e+08
2.22663e+08
2.94832e+10
2.14706e+08
7.53012e+09
1.6524e+10
4.87382e+08
2.22757e+09
6.72315e+10
4.82665e+10
7.79944e+09
3.59376e+08
3.70288e+08
2.6308e+09
5.94036e+09
7.93665e+10
5.09265e+10
2.55504e+11
3.29488e+10
4.50802e+10
4.88749e+08
9.66247e+08
1.69498e+08
2.63673e+08
7.1531e+09
1.04944e+09
1.93594e+10
1.03718e+09
3.71033e+10
2.59624e+10
1.53695e+11
1.55703e+11
3.05232e+10
1.65061e+10
3.36454e+08
2.31271e+08
5.15404e+09
1.75507e+11
1.97251e+08
3.67588e+10
1.28855e+11
1.47133e+08
1.28246e+10
9.23487e+09
1.56935e+11
2.90338e+10
2.69073e+11
2.57769e+08
5.48407e+10
5.94874e+10
2.67579e+08
1.92703e+09
2.89578e+09
2.04773e+10
1.8229e+08
7.7082e+10
8.10386e+11
3.03289e+10
1.46286e+10
1.88741e+10
1.23049e+11
4.47407e+10
2.87719e+08
9.15955e+10
4.47895e+10
3.34921e+10
6.7648e+10
2.09001e+10
4.40804e+10
1.66573e+10
1.66981e+11
4.6998e+10
1.74065e+11
1.37191e+11
9.36735e+10
9.90118e+08
2.5293e+10
2.69021e+10
3.17148e+09
6.54795e+08
2.47813e+10
2.05348e+10
1.24853e+08
2.86063e+08
1.90512e+10
2.04982e+11
1.3795e+08
4.40465e+10
1.12008e+09
4.95138e+10
1.0459e+09
1.76996e+10
5.01494e+09
3.04113e+09
7.91854e+09
2.15479e+08
3.2896e+06
5.67451e+09
1.21739e+10
5.6549e+09
1.79596e+10
1.2125e+10
1.08547e+10
2.47869e+08
3.38446e+10
1.52043e+11
3.58856e+10
1.72813e+11
1.25799e+10
7.28365e+07
1.1312e+10
7.26584e+09
1.4119e+10
1.13074e+09
6.06767e+09
3.40802e+08
4.42003e+10
6.52479e+08
1.2679e+08
6.39092e+09
1.55363e+11
1.1052e+09
5.39948e+10
1.32235e+10
3.96736e+10
1.28307e+10
8.92425e+10
4.36094e+10
4.34347e+10
1.12656e+11
6.33474e+09
2.92786e+10
1.21745e+09
3.39614e+07
4.09225e+09
1.74954e+10
2.39571e+08
2.48279e+08
5.1829e+09
1.11956e+10
4.18251e+10
2.18997e+10
9.60633e+10
3.86362e+10
2.82447e+08
5.57793e+09
5.83746e+10
8.98309e+09
2.2728e+11
7.89839e+12
1.10066e+11
3.38082e+10
3.76564e+08
1.26252e+11
3.64113e+10
2.97268e+08
1.43552e+09
3.09564e+08
2.70986e+10
1.19142e+10
2.07633e+10
4.89561e+10
4.45988e+10
5.82897e+10
1.08356e+09
5.85713e+09
2.79163e+08
1.69039e+08
1.34679e+09
8.03024e+10
6.41654e+08
1.88921e+11
3.11589e+07
5.12987e+09
1.36954e+10
5.33122e+10
1.21538e+10
1.82254e+10
8.57791e+08
5.38009e+10
4.80794e+10
1.66604e+10
1.38484e+10
8.1144e+10
5.93723e+08
3.3e+08
3.75719e+08
1.88648e+11
2.40265e+10
1.43917e+10
1.05259e+11
1.28966e+11
1.07108e+09
1.68639e+11
5.12734e+10
2.5287e+10
6.57619e+09
1.9719e+08
6.37953e+09
7.71581e+09
2.90131e+08
1.85664e+11
3.30985e+08
3.19077e+08
1.20038e+09
1.38381e+06
8.25673e+10
2.19977e+10
3.22172e+10
2.52186e+10
1.31223e+10
1.33897e+10
1.46928e+09
1.17428e+11
3.0023e+10
1.74089e+10
3.6464e+09
1.20162e+10
3.38245e+08
3.02542e+10
2.40702e+08
3.06893e+08
3.88452e+10
1.47629e+08
5.46946e+10
1.89811e+08
2.01261e+10
2.13861e+11
3.91536e+10
3.13309e+09
1.04785e+10
1.15594e+10
1.77568e+10
6.19397e+10
1.50136e+09
1.02419e+11
1.06633e+10
1.49842e+10
1.86134e+10
2.18698e+08
9.89047e+07
7.19358e+08
8.79446e+07
2.92605e+08
3.68372e+10
5.09941e+10
1.37171e+10
1.01615e+11
2.2762e+10
1.39664e+11
1.99663e+10
2.63851e+08
4.04242e+10
2.24585e+10
1.60719e+09
2.92041e+10
6.61944e+10
1.33612e+11
5.58696e+10
1.33956e+11
3.88492e+10
4.54355e+08
3.76857e+09
2.14661e+10
9.00348e+08
2.13087e+10
2.14399e+09
4.2366e+10
2.9322e+08
2.62811e+08
1.72657e+08
3.93317e+09
1.17738e+10
4.33532e+10
1.24074e+11
2.48709e+10
2.2255e+10
1.01097e+09
2.57455e+08
2.28896e+09
7.07815e+09
2.66604e+08
6.65063e+10
8.14796e+10
1.96275e+11
3.0883e+10
6.13782e+10
1.18346e+10
5.44383e+10
6.0379e+09
1.8164e+08
3.8899e+10
1.31102e+11
1.42941e+11
5.58129e+09
3.63177e+10
5.07908e+10
1.64292e+10
8.433e+10
4.71556e+10
2.10371e+08
1.52763e+10
6.01308e+10
2.06939e+11
5.07798e+10
9.61934e+07
1.20798e+10
4.11913e+10
9.13806e+10
4.68855e+09
1.86244e+08
1.41909e+11
2.26382e+08
3.84565e+10
1.02855e+10
1.89153e+08
6.69177e+09
4.16799e+10
3.44124e+09
1.268e+10
2.33116e+10
7.5603e+10
2.18509e+10
1.77187e+10
1.05566e+10
8.4417e+10
3.19109e+10
2.28159e+10
3.9893e+10
5.10019e+08
6.56825e+09
3.19228e+08
1.18877e+11
6.87178e+08
6.77533e+08
1.3014e+11
6.18498e+08
1.99658e+10
1.1726e+08
9.42215e+09
6.7962e+08
9.48214e+10
1.90724e+10
1.64713e+09
3.07081e+08
1.4256e+08
8.62363e+08
1.68307e+10
1.1953e+11
4.88532e+08
2.89839e+11
4.77833e+08
2.33974e+10
1.7329e+09
4.15633e+10
4.44118e+10
2.22545e+11
4.32479e+10
3.73922e+11
5.66231e+09
6.1253e+07
1.77646e+07
4.71594e+08
2.19768e+10
1.13952e+11
1.76364e+10
4.48889e+09
1.10552e+11
3.35255e+10
4.61817e+09
1.41738e+10
1.00656e+11
5.24467e+10
1.14698e+11
4.57758e+10
7.45888e+09
4.57665e+10
1.11377e+11
5.23871e+08
4.92939e+10
4.72143e+10
1.18591e+10
1.43169e+10
1.13073e+11
3.93199e+09
8.94399e+11
2.28034e+10
1.14749e+11
5.46261e+09
1.21574e+11
1.4462e+10
5.98807e+08
3.20078e+08
3.70205e+09
5.49315e+09
3.8021e+10
5.97958e+09
1.27739e+09
3.86505e+09
2.53705e+10
1.26107e+11
8.48892e+09
1.75111e+10
3.67818e+10
2.4529e+10
1.48442e+11
2.38359e+08
3.95636e+10
5.69904e+10
4.49411e+10
2.16348e+10
5.38987e+10
3.19927e+09
1.05024e+09
3.58182e+10
1.83907e+11
1.18501e+11
2.26836e+10
3.16051e+09
3.70891e+10
2.31064e+11
3.04291e+10
2.68268e+06
2.72376e+08
7.22296e+09
4.54033e+10
2.24791e+10
8.81817e+10
2.04949e+11
1.84075e+08
1.72732e+08
1.04646e+11
2.11882e+09
6.73518e+09
1.51315e+11
1.15792e+10
1.75626e+10
9.53884e+09
1.38124e+10
7.02294e+09
8.68712e+07
8.65183e+10
1.1905e+10
2.975e+09
5.91884e+08
1.01582e+12
7.71481e+10
6.2359e+10
6.1405e+08
4.49496e+09
8.89573e+10
9.54556e+09
5.37793e+08
3.84146e+10
1.33531e+11
1.47408e+10
1.15636e+09
4.54029e+10
1.46251e+10
1.0314e+11
1.05696e+11
2.95657e+12
2.10414e+10
4.15564e+10
1.97902e+09
1.77121e+11
9.62126e+09
1.7934e+10
2.89418e+10
1.25901e+11
5.59108e+10
6.37934e+08
1.45898e+08
2.2042e+10
1.12347e+10
7.08612e+09
8.80885e+06
4.961e+09
1.51131e+10
1.01304e+11
6.51772e+10
1.35218e+09
1.49764e+10
2.81706e+10
5.87686e+09
6.42132e+10
3.15109e+09
8.00379e+10
3.41392e+10
3.14682e+10
4.21437e+10
2.0314e+10
9.2711e+10
8.63301e+09
3.91817e+10
8.71535e+10
1.1529e+09
9.10092e+10
3.92004e+10
3.03551e+10
1.2068e+10
4.0113e+10
4.55853e+10
3.38736e+09
1.28022e+11
7.10823e+09
2.92957e+09
5.09054e+10
1.36977e+08
1.11976e+11
2.26714e+10
4.08822e+10
1.42661e+11
2.66372e+10
1.09351e+09
1.67521e+11
4.88206e+08
6.31369e+10
2.24402e+09
1.40703e+11
1.77182e+10
1.69527e+10
3.42345e+08
4.49157e+10
1.4092e+10
2.88125e+08
3.17814e+10
1.20579e+10
1.48981e+10
4.43521e+10
2.11358e+08
3.32455e+09
1.01481e+10
2.11427e+10
5.60871e+10
5.28498e+10
1.24629e+10
4.70192e+10
1.23078e+09
4.47286e+10
6.38731e+08
3.87853e+10
1.11306e+11
5.43791e+10
6.55944e+10
3.90497e+10
3.13365e+09
8.93233e+09
1.9373e+09
2.35742e+10
3.42724e+08
7.03398e+08
3.12173e+10
7.98706e+09
1.4533e+10
1.28692e+08
1.6983e+10
1.17322e+11
1.43063e+11
1.72229e+10
6.44561e+10
1.2557e+10
2.04829e+08
6.2191e+08
2.35278e+10
3.8015e+10
3.29024e+10
2.03792e+10
2.05135e+08
3.3802e+08
5.54652e+08
5.74714e+10
3.19749e+10
1.02402e+09
1.98235e+11
1.26353e+09
2.80357e+10
2.94597e+08
1.06745e+09
1.48478e+09
2.59783e+08
8.73537e+12
8.08779e+12
5.9902e+08
2.93109e+10
3.65235e+09
2.00112e+10
2.74544e+10
9.60958e+09
5.27831e+10
1.81919e+10
4.2346e+10
3.03234e+09
3.08192e+09
2.43696e+08
4.76017e+10
8.44534e+08
1.60882e+08
3.5691e+10
1.44391e+09
4.7657e+08
1.09554e+11
8.29213e+07
1.21325e+10
1.55748e+09
4.18347e+11
5.74933e+10
1.94084e+09
6.14863e+10
2.07402e+10
1.87367e+10
3.74681e+09
1.74959e+10
2.07494e+10
1.64386e+10
2.78349e+10
7.40654e+06
2.9906e+10
7.70187e+07
9.03249e+09
1.78468e+10
5.10046e+10
2.09139e+09
1.48391e+10
1.6069e+10
8.51041e+10
1.33162e+10
3.76563e+08
1.39677e+08
1.92043e+11
4.97545e+09
1.24751e+11
8.55357e+10
1.76094e+10
1.367e+11
1.48658e+10
1.4785e+08
2.52472e+08
9.29014e+09
3.20566e+10
1.44534e+10
1.71862e+10
6.71622e+09
1.37512e+10
4.89471e+09
9.80708e+10
8.6757e+10
1.2816e+09
1.11194e+10
3.61761e+09
1.6328e+10
5.13717e+10
4.19509e+10
9.36705e+10
4.10113e+10
1.59031e+11
3.22454e+09
8.69543e+07
6.53933e+09
4.39605e+10
1.56194e+10
5.20395e+08
1.04076e+11
4.42596e+10
3.31437e+10
1.17156e+08
1.70391e+10
3.84565e+10
9.6535e+09
3.16895e+10
2.72541e+10
4.34749e+10
1.12883e+11
5.01126e+10
8.91101e+07
2.15363e+10
5.32801e+10
1.27361e+10
1.86818e+09
7.04261e+10
2.61945e+11
4.63369e+08
1.10837e+08
4.686e+09
5.15196e+10
1.59019e+10
4.38619e+10
4.61399e+10
6.61708e+10
6.89274e+09
2.21513e+10
5.09813e+10
1.11691e+10
1.55092e+11
4.79223e+09
1.91048e+10
5.86482e+10
1.66282e+10
1.5191e+11
3.87179e+10
2.64483e+10
8.65122e+08
1.68097e+10
3.40805e+10
5.15902e+10
3.10757e+10
3.87614e+08
3.76364e+09
2.86482e+10
2.75328e+08
1.83103e+08
9.41212e+09
2.3614e+10
1.28248e+11
1.43185e+08
2.87359e+10
4.99614e+08
1.88256e+10
1.90009e+10
4.32573e+10
7.29356e+10
5.1355e+09
2.39018e+08
9.38262e+07
3.05609e+10
6.91271e+10
1.14257e+09
4.65731e+09
2.68224e+10
2.69167e+09
1.24637e+10
1.44206e+10
9.43945e+07
1.22615e+10
7.17983e+10
2.4076e+08
6.45491e+09
2.14636e+10
1.64263e+10
6.95858e+08
8.01539e+07
6.76829e+07
8.50636e+07
9.82331e+07
1.00098e+08
6.12876e+07
7.69831e+07
9.16537e+07
8.30275e+07
2.36563e+10
5.54282e+10
1.43038e+09
1.17661e+08
3.6202e+10
2.55611e+08
4.47461e+06
7.06024e+08
1.8188e+08
1.8859e+10
2.17796e+08
1.8915e+10
3.41682e+08
3.96033e+10
2.84267e+08
3.30605e+10
2.90574e+10
1.46787e+08
3.64756e+10
3.86e+09
1.90113e+10
9.393e+10
5.33426e+10
1.29561e+11
1.19838e+10
1.42446e+10
6.1864e+07
1.1133e+11
3.24135e+09
3.96862e+10
6.3952e+10
1.39198e+11
1.87986e+10
6.51865e+08
8.90897e+08
5.41667e+08
4.15705e+08
2.9637e+08
6.42543e+08
3.85078e+10
1.61357e+09
1.96538e+08
1.35889e+10
1.00835e+11
1.64343e+11
8.56947e+09
8.58592e+10
4.51279e+10
1.11203e+09
1.61264e+11
4.83061e+10
1.77399e+10
1.00493e+08
1.05388e+11
2.47936e+08
1.95622e+10
1.80651e+10
1.16027e+09
9.97623e+09
1.55115e+09
3.28242e+08
4.31184e+10
2.106e+11
1.07369e+11
1.59734e+10
4.65493e+10
1.68233e+09
1.79063e+08
4.28427e+10
6.21142e+08
1.19201e+11
3.30207e+10
1.67591e+11
6.4705e+10
1.44895e+11
1.96174e+09
5.51416e+10
4.15371e+10
1.59528e+09
4.33863e+10
4.05659e+10
1.19381e+10
8.28805e+10
1.68242e+10
1.27486e+10
5.98339e+09
2.30348e+08
2.04876e+10
1.44426e+10
1.22002e+11
1.13219e+11
8.81667e+08
9.70408e+09
5.19085e+10
9.74143e+07
2.83907e+08
1.20283e+10
3.68669e+10
4.88811e+10
1.02662e+10
2.71318e+10
1.17183e+08
6.72187e+09
8.58782e+10
1.53216e+10
4.11208e+10
2.61677e+10
2.71743e+08
4.34163e+10
7.09403e+10
8.65043e+10
3.61593e+10
2.11006e+10
2.62298e+09
2.0065e+09
6.58774e+09
1.57314e+09
1.14024e+10
2.21262e+10
1.20402e+09
2.53631e+08
2.45964e+11
2.33983e+10
1.66888e+11
1.29437e+11
1.31059e+11
3.1042e+09
8.70998e+10
3.22788e+08
1.88044e+10
1.56092e+10
3.65549e+10
1.67206e+11
3.4974e+09
1.07739e+11
4.40582e+10
3.50747e+10
1.02224e+11
1.8836e+10
2.86e+08
8.49349e+09
3.33958e+09
2.08222e+08
1.36291e+11
1.31327e+11
1.55695e+11
3.19473e+10
1.53314e+08
6.18384e+08
1.64959e+10
4.87849e+09
2.9461e+10
3.38939e+09
2.65335e+08
9.45034e+09
5.56802e+09
6.17086e+10
1.8016e+10
7.51817e+10
2.42356e+10
5.40307e+09
7.17919e+09
5.83802e+10
1.34009e+10
1.22468e+11
1.6952e+10
6.60035e+08
1.67975e+11
1.95119e+11
1.50607e+11
6.73719e+09
1.113e+11
2.6027e+10
2.49741e+10
8.94548e+10
3.16514e+10
5.0086e+10
8.80643e+08
2.91605e+10
2.33238e+10
1.83212e+10
4.33164e+09
5.0572e+10
8.1155e+10
5.80708e+10
1.27779e+10
2.41129e+10
4.34558e+10
4.39739e+08
4.02657e+10
9.9891e+08
1.34233e+10
2.27768e+08
3.52575e+10
5.24595e+10
3.36891e+10
4.27982e+10
6.27423e+10
3.69629e+09
6.92518e+10
2.75371e+10
3.88676e+10
2.55944e+10
1.98489e+10
4.05188e+10
2.78612e+10
1.96664e+10
9.38266e+09
3.64663e+09
5.26283e+10
1.48881e+08
4.20098e+08
1.16234e+09
4.75032e+09
7.10744e+10
2.03516e+11
2.83751e+08
6.316e+08
1.00249e+11
8.9775e+09
2.83319e+08
1.09296e+11
7.87985e+09
3.71212e+09
5.79747e+10
3.65017e+10
2.99077e+10
1.15486e+11
5.15845e+10
2.23425e+10
4.00996e+10
4.10785e+10
1.59545e+10
2.35698e+10
2.52762e+10
1.98497e+10
7.1919e+09
3.33078e+09
5.91236e+10
1.96466e+10
6.59369e+10
3.65701e+10
4.28522e+10
3.99431e+10
2.494e+08
3.28264e+08
8.18317e+08
2.13972e+11
1.98232e+09
2.27889e+08
2.80516e+08
4.55931e+10
2.96546e+10
3.49072e+09
1.19614e+10
1.86321e+10
6.58616e+08
5.66266e+10
8.72272e+10
3.37842e+10
1.79984e+10
8.43135e+09
4.49664e+10
3.65784e+08
3.39478e+09
2.08787e+10
5.17367e+10
2.25848e+10
5.75115e+10
1.39739e+10
2.77711e+08
4.28025e+08
2.21392e+09
2.24527e+10
4.32341e+08
2.13968e+09
4.49128e+08
7.52463e+07
2.02564e+10
6.47508e+08
2.0505e+10
3.4413e+10
6.31834e+10
1.23367e+11
1.51565e+10
3.5013e+08
2.29162e+10
7.70428e+10
1.61392e+10
1.05027e+11
3.44378e+08
9.05409e+10
2.04129e+10
5.09605e+10
1.00047e+09
3.33562e+10
1.0251e+09
1.86497e+08
1.92951e+10
1.88671e+10
1.99023e+10
2.13402e+09
1.70949e+10
1.95613e+10
1.8682e+10
4.03652e+10
3.77824e+10
1.67267e+08
4.67703e+10
4.38424e+10
7.16835e+09
3.95016e+10
1.46896e+10
6.91575e+09
2.18034e+11
2.76314e+10
3.9994e+10
2.51321e+09
3.39297e+08
1.98058e+08
3.93444e+09
1.35748e+09
1.77225e+10
2.82733e+10
4.97655e+08
4.65998e+10
2.08946e+08
3.19308e+08
1.99199e+10
1.23538e+11
3.76862e+08
1.207e+10
1.03949e+11
2.52403e+08
2.08494e+08
2.43382e+10
1.0669e+09
3.68372e+08
1.82742e+10
6.72638e+09
6.15511e+08
2.92729e+10
2.85217e+10
1.57937e+11
1.17981e+10
4.76277e+10
4.06121e+09
1.21867e+11
1.09758e+11
2.66817e+10
9.14673e+10
2.57271e+10
3.51323e+11
5.56319e+09
1.05707e+11
1.18843e+08
1.62589e+10
2.01618e+08
4.02156e+08
2.18962e+09
7.33407e+10
1.10185e+11
7.04489e+09
3.20768e+10
1.52592e+11
5.6621e+09
7.62746e+07
1.03601e+09
1.08435e+10
6.11338e+09
5.80337e+07
3.44201e+09
8.32905e+08
2.08088e+08
1.4051e+11
1.66513e+08
1.41925e+10
1.22024e+10
1.4938e+11
1.41045e+08
3.94549e+10
7.18199e+10
4.50777e+10
2.97427e+10
1.92853e+10
3.99742e+10
1.36988e+11
6.54808e+10
3.22908e+08
3.9181e+10
7.62732e+10
8.78628e+07
1.22498e+09
9.37136e+08
1.7262e+08
1.84171e+09
2.46024e+08
1.85295e+10
1.4878e+10
9.10453e+09
7.93081e+09
2.65783e+09
1.66675e+11
4.67448e+10
1.99896e+10
2.02473e+10
9.62547e+09
3.72949e+09
2.53372e+08
3.92853e+09
6.28044e+09
8.47336e+10
2.11378e+09
1.79977e+10
4.31875e+11
1.52081e+10
1.57746e+08
6.82958e+10
2.10967e+08
2.01663e+08
5.8949e+10
1.27357e+11
9.07883e+08
2.56303e+10
4.86556e+10
8.25791e+09
6.20037e+10
3.9348e+08
6.45955e+10
1.64694e+08
2.85421e+11
2.69744e+09
3.6179e+10
1.83544e+08
4.5671e+10
1.3528e+10
3.86229e+09
1.89767e+10
1.74686e+11
3.11239e+07
1.66194e+10
1.77757e+08
4.16555e+09
3.31496e+08
2.18255e+10
1.75709e+10
4.67933e+09
1.31337e+09
1.51101e+10
3.2479e+09
5.7516e+10
2.01423e+11
1.76063e+10
1.10065e+09
5.98314e+09
2.55716e+11
1.36485e+10
1.18333e+10
3.08248e+09
1.00094e+11
1.72426e+10
3.41958e+08
4.17627e+10
3.24061e+09
5.23143e+10
2.02847e+10
1.28748e+10
1.54794e+08
8.46718e+10
2.38715e+08
2.2897e+09
2.64603e+10
3.77693e+10
3.7165e+10
1.38484e+11
1.57505e+11
6.38961e+09
3.98522e+10
8.79416e+10
8.81793e+10
2.86354e+08
1.90468e+10
3.35052e+09
2.01628e+10
8.58305e+10
6.31332e+08
1.33553e+09
4.61076e+10
1.20157e+11
4.48355e+10
6.32641e+08
5.01775e+07
6.91584e+09
2.41258e+08
1.4589e+11
2.42112e+10
6.98616e+09
2.9361e+10
3.28034e+10
2.44409e+08
2.50247e+10
3.47768e+10
1.41152e+10
7.61916e+09
1.88926e+10
3.38799e+09
9.72161e+10
5.06515e+10
1.59831e+11
2.84647e+08
1.05129e+09
7.52927e+09
1.2077e+11
1.58464e+09
3.02566e+09
6.18073e+08
1.93521e+10
2.23688e+10
6.85594e+10
4.35578e+09
1.02674e+10
4.02851e+08
1.81311e+09
5.07041e+10
1.75971e+08
2.70301e+09
2.83751e+08
5.57011e+09
1.73173e+09
5.11299e+10
4.78182e+10
6.19896e+10
1.0163e+10
8.9148e+09
4.16029e+10
2.62994e+08
4.86747e+09
1.03209e+11
1.02395e+11
4.48206e+09
2.63239e+08
5.60712e+10
1.22309e+11
1.33157e+08
1.3403e+11
1.0831e+12
4.06001e+10
5.10996e+10
9.35311e+10
1.43556e+10
1.82063e+10
1.07002e+08
2.34272e+10
2.08967e+10
2.8914e+08
1.78167e+08
1.73113e+08
2.10542e+10
3.51887e+10
4.77814e+10
2.57779e+10
3.57465e+08
3.4998e+08
6.81308e+09
1.07928e+09
2.45529e+08
4.01619e+10
1.00125e+11
4.7683e+10
1.22014e+10
6.84756e+10
2.95926e+08
7.50012e+07
2.22872e+10
9.63606e+09
3.28764e+09
1.93708e+08
1.65784e+08
1.77411e+10
4.35728e+10
4.29698e+10
8.90868e+09
1.11672e+10
8.17066e+10
1.30871e+11
9.80068e+09
1.402e+10
1.97319e+08
1.70457e+10
2.29816e+10
5.10869e+10
1.32651e+11
2.30571e+10
9.15292e+10
2.99533e+10
1.40481e+08
1.47919e+08
2.48099e+08
7.51463e+09
3.31454e+09
2.23535e+10
1.38723e+10
1.05167e+08
6.58345e+08
4.86978e+10
6.60315e+09
9.97998e+07
1.01975e+11
1.14946e+10
3.17254e+10
1.41762e+09
1.82494e+10
2.60835e+10
2.86262e+08
4.19725e+09
1.54982e+11