/*--------------------------------*- C++ -*----------------------------------*\
  =========                 |
  \\      /  F ield         | OpenFOAM: The Open Source CFD Toolbox
   \\    /   O peration     | Website:  https://openfoam.org
    \\  /    A nd           | Version:  8
     \\/     M anipulation  |
\*---------------------------------------------------------------------------*/
FoamFile
{
    version     2.0;
    format      ascii;
    class       volScalarField;
    location    "8e-05";
    object      k;
}
// * * * * * * * * * * * * * * * * * * * * * * * * * * * * * * * * * * * * * //

dimensions      [0 2 -2 0 0 0 0];

internalField   nonuniform List<scalar> 
23640
(
3205.32
21315.8
90.3127
281648
16599.2
25968.1
11969.8
7458.99
36599
24249.6
41407.1
24367.2
3972.16
15684.3
32274.9
19242
1572.11
53584.2
53207.8
44141.6
36838.9
73.4513
38072.4
19471.7
12270.9
15354
71216.5
47774.1
1060.07
6533.1
3033.43
798750
35818.3
35009.4
37974.3
26120.4
1617.52
2045.63
468.34
20398.2
29890.5
34012.6
14084.2
861.745
517231
72977.1
2316.15
26776.8
24496
6749.06
796306
64191.4
26282.6
1893.36
290752
3927.95
29795.6
20685.3
8375.22
519700
2974.24
72006.9
59799.7
64368.3
11605.8
64039.8
20091.1
14158
25794.8
14133.9
23062.4
34904.4
38341.8
1679.19
17458.5
793885
423.937
3852.19
52548.8
55036.1
74686.1
54574.6
14809.4
15305.9
11123
12086.3
63785.1
5700.33
24093.9
30077.6
10131.3
19985.3
37385.3
42775.2
68918.9
5727.27
63664.6
7183.17
15917.2
34247.2
40313.1
1899.19
14567.2
2115.23
34805.2
1900.02
106783
2443.96
26857.3
17316
2668.66
39020
27342.6
30781.9
29788.8
1452.52
30036.6
2439.27
3020.39
6816.62
5941.37
766336
8087.04
783991
64778.5
17013.7
797511
55243.4
26048.2
32497.9
51349.6
45989.2
3970.83
69731
2539.43
3940.25
36885.4
13244.1
41665.1
60997.3
16533.9
30244.6
37861.2
41846.7
30449.8
16505.5
39494.9
25311
10780.3
25512.2
6491.7
6143.4
14455.3
112048
54180.8
1657.01
12060.6
32937.5
12740.6
71309.2
26652.8
22991.8
26912.6
13843.9
1150.41
942.516
42745.3
73419.2
118604
44954.2
26086.2
28690.3
18049.4
26097.9
70196.5
66797.2
31794.6
35186.5
56229.9
8043.8
510184
2741.72
13010.2
49143.4
1183.66
72179.2
66305.3
36022.6
496745
50491.6
28797.3
38410.9
751935
14127.7
1211.7
16633
34829.6
33933.9
2674.1
67643.6
46586.7
529.62
2254.24
33437.5
47129.2
8039.62
1865.42
37065
40971.2
48576.1
16337.8
14285
3981.6
8309.13
6303.53
19735.8
29789.8
43900.5
16624.2
816.7
4191.78
39866.4
46303.7
25242.2
21807.2
26241.6
18983.8
777272
873.748
10253.1
3406.6
1298.38
41168.1
15022.5
32461.6
54465.1
23849.5
20116.4
11070.1
71920.9
42378.1
10312.1
29787.2
30597.5
238792
1432.33
4571.51
7204.93
65726
16652.6
544920
17170
2288.64
70653.7
7508.2
20758.3
250.69
1370.37
171718
148214
430057
2665.37
42086.7
25493
1062.17
14023.1
66731.1
15544.9
7340.49
65652
31166.5
684.617
3863.03
502731
51387.3
35280.8
1182.41
767492
67098
25764.7
16085.8
894.35
73608.7
42596.6
23955.5
71778.5
15612.2
37528.2
27291
42564.1
7712.63
1586.61
19813.9
16368.7
41643.1
11872.5
28962.8
1733
17408.7
2212.79
74249.4
63479.7
775857
19261.3
36921.7
712.986
49593.4
72252.3
368989
36095.1
1298.39
52020
71007.5
48416.6
46190.5
67005.4
36014.3
141.932
68425.6
25526.3
3211.39
34890.2
38107.1
46898
2492.63
51239.7
260047
11964.8
3579.97
798320
76182.8
7522.59
49402
59633.9
14353.4
18626.1
2711.87
31563
11338.9
17103.7
8109.07
36925.7
53462.6
771554
32674.5
54872.9
72385.3
22863.9
25804.4
41115.5
142810
48109.2
1416.32
2392.45
37024.6
839.242
5992.76
2497.63
57716.8
40215
65233.6
39978.3
60755.1
2054.83
20125.2
593.452
577.194
30491.8
53392.5
6941.72
58703.7
19493.9
1330.36
45798.2
63755.6
1436.15
643307
454.673
12118.7
66081.9
40281.6
19829.1
18703.4
39508.6
18646.1
2002.13
33887.8
874.438
18284.6
835.525
68313.7
23953.5
1218.07
27694
36836.3
20510.6
761686
2246.41
2240.66
72396.7
1822.64
21419.9
32668.3
715.133
3844.41
17874.9
292820
1122.94
39199.2
13407.4
32723
64436.4
93620.2
40326.7
40371.5
28821.8
71951.3
4515.08
35055
38616.9
168461
67400.8
17378.1
32734.2
28923.6
861.451
778725
8798.31
39513
10452.4
1292.5
588095
43762.9
37292.8
59059.4
33258.8
61750.8
31462.5
67981
589427
60327.7
54649.6
17400.9
30602.5
68198
18447.1
72700.5
31794.9
44516.5
30724.7
800176
20544.9
76354.5
24506.3
54786.6
2221.42
22187.6
48463.1
162389
31762.8
34539.7
23562.5
28608.8
800148
38282.5
6881.7
34599.5
1455.7
38441.9
29152
49575
7158.43
443197
440.163
2218.27
73173.1
16926.9
799933
51033.9
770885
15883.6
1237.7
41304.4
31152.7
35713
35253.7
29306.2
684.279
3121.55
2386.72
65788.8
750590
3659.47
16666.7
12360.7
17597.9
37185
78088.1
32093.1
2496.63
5503.03
49857.6
872.361
17619
6392.54
7584.53
36803.8
993.367
1555.86
3914.53
72961.5
3046.19
25669
15818.7
37343.5
30987.2
27937.4
1173.54
29373.2
42589.5
33779
69269.2
800178
24967.6
27098.7
27746.5
36426.6
39298.1
40497
9027.42
19517
22713.7
57386.1
6394.21
7547.77
4600.12
27514.1
41084.6
2103.05
56912.2
10570.4
6566.47
12491.6
17123
1782.36
14467.6
26445
28506.4
9083.54
9218.75
68868.3
15210.4
4950.41
817.286
68583.8
5087.46
15687.4
8441.45
37704.9
73466.4
3064.14
28699.1
18259.6
68187.3
58492.4
38232.4
18290
45038.2
45239.2
29886.3
800165
16093.2
12202.7
1806.37
2330.24
53402.1
10902.6
13286
33861
2074.41
597958
19261.8
2441.3
39770.1
48111.3
22014.1
9069.76
33688.9
15151.9
45224.5
66006.4
11286.8
30777.6
28096.5
7749.01
67786.8
42698.7
69361.9
7224.37
37291.3
40963.6
44265
183569
54738.5
6900.28
7761.38
38379.7
2757.81
29635.2
36093.8
6441.1
6733.15
23345.5
9419.84
26020.6
36912.8
10941
18443.5
1720.08
782813
47870.2
28554.8
42056
68060.8
16576.9
67830.3
22816.6
44880.9
6048.76
18129.4
666.752
13893.8
1305
8035.32
748.26
368231
5659.31
25172.5
2239.36
31337.6
28924.8
6057.06
27720.3
3794.75
3763.3
19456.5
45243.1
68603.8
1943.68
23147.6
38651.5
770701
28033.7
10504.7
43055.8
514285
31926.2
29158.3
4185.66
3561.15
40575.5
74309.7
1393.91
51314
14.2375
16.5514
3721.52
761459
26950.7
25521.7
773210
17297.7
19269.9
41539.1
66162.1
1648.87
4617.37
15804.7
2467.52
50663.8
584360
15765.1
15821.7
713.657
31967
2030.13
311430
31697
74863.1
770822
1024.12
2654.35
49373.2
15355.7
69642.1
1440.48
34594.3
60104.5
21911
26738.1
799584
66886.6
36171.3
17233.6
2329.98
42142.2
16566.6
31908.5
25615.6
37627.2
42183.6
16319.5
40527.5
1000.34
84.8571
23808.1
29924.4
20216.1
36838.4
13813.1
39669.7
72907.8
31310.9
786.55
54475.2
36.9413
1177.06
1320.24
32292.4
204736
22585.2
2407.43
46797.3
23257.3
1396.55
25390.6
1136.61
29105.4
49341.7
22384.6
10979.4
32182.3
50595.2
47756.5
1911.04
73912.3
2552.61
18719.2
981.363
5897.7
70165.7
569.522
12972
4985.04
14351.1
799895
65731.4
2714.11
64625.6
20120.7
2240.45
9820.45
58602.9
10304.3
262291
4565.49
42916.2
36540.3
47901.2
53740.5
38051.6
34094.2
75205.8
27842.2
21294.6
4100.44
84942.2
13516
70149.1
3304.65
35799.3
787658
190.286
3613.97
7591.8
748252
68434.8
1423.71
49157.6
27499.7
512.995
30949.4
33704.7
6192.63
959.098
22525.3
1898.25
47890.1
2073.98
19388.4
23112.3
36366.2
12466.2
2582.9
31710.3
499018
21022.6
48867.7
37975.6
5665.59
26342
20937.1
16034.9
291474
10266.4
36035.3
11603.4
4851.8
32054.5
29141.2
15234.3
398.771
5681.79
47973.6
4919.86
23874.4
51872.8
2611.27
31414.3
58601.2
5135.95
64719.6
2297.26
65002.5
27482.5
14821.8
18649.1
67770.5
355.749
4459.3
64012.3
25491.9
43178.8
33539.7
1349.3
2026.51
116614
5222.43
18777.7
16373.3
7402.55
3802.23
41081.9
4380.34
56219.8
800173
14217.7
50945.4
24914.9
46297.4
37755.4
2603.45
6979.13
70887.3
71512.8
3738.92
43271.7
2231.37
629923
24064.9
55272.2
24835.6
52604.8
39240
800126
1234.66
226648
76197.9
2231.98
815.534
35607.8
7148.96
63761.9
3214.56
48021.5
30044.9
53306.4
51241
296394
5833.32
206.211
70516.9
29342.6
15341.5
5377.89
52395
3267.35
10907.9
724.421
22617.6
46708.6
1954.62
14611.7
3158.37
59533.1
169.226
53811.1
9186.57
21141.7
1602.02
65620.3
840.214
25648.6
46649
441726
5662.03
69990
110430
45473.9
43736.5
16056.4
35967.3
6784.66
18006.8
691.881
27254.7
1202.69
14228
27535.4
790473
65041
42153.7
96.7017
32270.7
464409
57710.7
23326
5667.83
16845.6
54979.4
12903
566.453
9465.6
23805.8
44525.8
32935.1
30084.8
50271.9
1345.62
2671.75
32467.2
40049.5
1783.15
17938
17432.5
7269.77
75729.7
292.113
20119.2
2077.62
39947.4
9327.52
45676
3897.13
28837.3
9858.93
18253.1
535238
13567
15331.2
43902.1
2525.17
38946.4
15911.9
13797.6
4001.27
31500.1
19173.7
34113.8
39889.6
9997.02
19171.9
27559.3
19768.9
15648.1
39010.8
494.773
4480.67
22942.7
54058.8
4176.11
262427
12663.7
31202.4
24546.8
12482.6
546252
8158.94
19648.2
35657
29121.9
3844.45
69690.4
51244.5
25227
72261
57228.2
1648.36
3679.12
3085.98
953.578
6567.76
2205.79
11548.7
17434.3
32533.2
6042.27
12305.5
38387.7
439.286
48423.7
749031
543.154
20404.7
52359.6
1342.06
22291.8
186930
17770.5
16176.3
56588
52221.6
8933.92
39322.9
2361.01
7651.1
4261.39
30977.6
9045.09
2643.74
4561.51
31500.9
3097.42
11727.8
2345.28
70319.2
58653.4
72341.3
646487
39693.5
23618
21932.8
567414
18645.4
39122.3
6860.58
63996.8
9346.61
897.187
33394
23779.9
21889.2
2041.84
69715.8
16354.7
3438.16
770.348
70442
75147.3
14931.2
42147.6
794.711
29546.7
63975.9
64707.1
11084.7
70624.2
2941.93
17693.5
21141.3
3943.72
27823.7
34184.9
70206
1297.79
29094.2
37899
51648.3
24545.9
31302.5
46873.4
11369.5
6377.07
34467.7
35876.7
6677.93
4387.23
2128.38
18892.6
13960
19278.6
462.885
336.596
178023
1294.36
23017.5
33867.5
1804.05
10784.1
72692.3
32034.5
15506.3
3165.12
3241.46
9250.12
17284
69425.7
69982.9
1766.55
52108.9
45879.5
3761.46
3087.66
1189.27
1677.86
781477
6490.55
35845.2
6441.33
543203
40646.9
18514
18874.8
76059.7
800098
2264.81
774.515
13244.5
1827.07
1215.72
66836.3
9363.19
1206.59
38730.8
15752.1
54952.8
170897
263770
1249.44
70630.8
37008.4
2300.73
8948.19
5922.34
36094.6
1262.38
76299.2
4494.66
50704.6
37623.2
32066.3
12997.2
54727.4
2359.16
45410.2
50194.5
46262.9
24301.8
40424.4
66076.2
25584.6
18312.1
45706.3
7310.66
26828.2
30096.7
6254.6
40248.4
40937.3
12004.2
2915.85
50237.3
45854.4
959.55
1515.06
42701.7
65511.4
1149.49
18200.6
5686.74
40239.5
6090.64
13525.5
13044.7
12207.4
21425.5
1375.85
800163
10257.8
41704.3
17744.6
27488.4
41903.7
26537.1
1764.33
52858
21250.2
18682.2
8347.46
39865.1
604.665
27399.5
22688.3
30589.4
3716.33
17428.2
3070.3
68160.1
4399.86
517.169
19329.9
18723.1
6411.14
63921.8
40232.9
52179.3
56144.3
74641
478952
49697.4
22638.2
18582.9
55781.6
6678.39
58.5462
13822.2
33975.6
2351.14
715.435
15719.6
26690.1
39291
17327.9
114151
5721.54
1014.83
16333.8
48869.3
13383.3
2435.01
785579
16734.9
45286.8
2460.39
11152.7
57164.2
2731.06
3234.27
2714.61
35449.1
43821
24777.2
39334.7
66487.9
51457.9
6615.38
17531.2
73.4142
1132.7
7576.23
10218.4
719.568
2889.74
107.816
15199.1
37194.7
69566
41605.7
32461.4
5648.63
3084.91
65163.5
30569.5
43152.2
18498.6
4462.96
1971.75
3291.11
1719.42
37881.2
29005.5
34118.9
29638.5
6306.2
11226.9
70182.9
52036.9
18734.3
1920.31
17440.8
20953
2609.11
2804.6
2997.12
2767.04
5664.71
800165
35708.4
24012.2
37244.6
51071
40656.4
36742.4
7855.94
17245.7
50523.7
46366.4
12840.4
27119.1
2127.47
38997.8
1147.19
2327.6
48938.4
1158.78
34662.6
1196.89
24517.8
29065.8
53478.5
12112.4
25244.6
17814.6
32376.7
105163
7989.42
69140.6
25412.3
53033.7
53994.7
1643.85
658.41
5047.92
424.76
2285.3
34306.3
49252.8
43155.7
28779.2
76124.4
5810.73
35819
2543.07
40617
37818.9
799241
22657.9
11664.5
66884.6
47673.5
11229.3
32911.2
3734.72
13232.4
33309.1
528.325
799597
8986.51
203805
2562.16
1904.13
1123.87
15396
26324.5
47952.2
12697.3
52088.5
30543.1
109.322
1268.95
10922.5
13189.7
2615.03
73036
29888.2
67330.4
39381.4
70177.5
45843.4
69891.9
17836.2
1722.04
24799.2
34146.2
59826.7
16584.5
53160.3
71208.2
33313.3
74098.7
54920.8
1095.73
2206.55
22645.6
21268.1
24736.7
707.768
42205.4
68824.6
26265.7
17281.2
1397
21185.6
932.011
14596.7
24161.7
1801.97
19150.3
41553.1
12928.3
39587.9
41112.9
66485.9
75521.7
15705.2
3833.04
35705
41416.5
20677.4
54602.2
4016.95
19136.5
2718.92
12209.3
3890.64
85.0704
11830.8
3365.27
44503.5
1024.6
14895.1
4828.16
36388.3
8665.34
3202.83
928.475
627.773
5619.87
44300.2
3408.81
3874.18
480126
3867.95
38637.2
5607.04
37555.3
70307.8
2871.23
500958
468364
16700.9
158.645
800130
3602.76
33916.9
52172.2
37281.6
16141.6
30627
53460.9
17038.4
29012.5
11323.7
50370.9
394615
32185.4
20598
66777
26609.4
789.745
35529.8
42804.3
45532.6
58386.1
27767.5
13623
372417
18477
31394.9
16836.9
26803.2
36899.9
3352.47
2715.01
13061.7
16912.3
67760.5
17903.9
6451.98
15154.1
39441.5
59905.2
21666.3
90137.4
555543
70776.6
561690
1296.8
54001.1
23647.8
18032.1
35964.4
46259
11845.8
6007.91
65401.7
1763.85
60914.8
52181.3
11752.4
238571
295758
67121.2
800180
2417.32
19475.6
56495
36982.4
77700.2
74939.1
1155.47
785.664
44150.4
10460.5
19428.6
53876.7
26060.6
62647.4
10413
28509.9
21047.5
624.022
42123.2
43857.2
11456.2
2970.18
410087
27966.9
29425.3
4502.31
15970.9
42942.1
24351.5
2785.33
49849.5
9974.46
31785.7
796678
202468
13139.1
16321
16545.8
292285
8853.18
36952
9803.88
20325.2
25352.2
28024.5
54561.2
38400.3
32253.7
3527.43
184.098
33353.4
26598.7
20758.1
800159
15831.5
18564.3
34766.7
276494
7318.73
30030.8
53857.1
10310.3
71618.8
11420.2
21805.4
52155.5
180522
53780.5
39686
32870.2
9629.12
68791.7
17768.3
5349.65
29421.5
60395
39868.1
50577.4
61514.8
56774.7
13707.8
29718.5
20590.4
12680.8
71682.8
1243.28
30950.7
759523
68034.4
8362.35
25066.1
1962.31
60559.8
3764.13
73281.7
9390.75
5650.67
73249
63529.2
3059.56
34317.9
67879.8
992.299
50016.3
27295
30897.3
53096.2
1257.68
12119.9
23881.8
34206.1
31982.1
66345
44381.7
62591.9
406.719
34229.3
4694.96
50601.3
778364
57922.7
85116.5
745520
13402.1
23298.3
6331.08
134545
2037.79
4977.01
24856.2
23098.5
71612.2
983.596
24763.9
24112.7
74518.7
37231.6
36360.4
39184.2
1315.14
4540.9
40326.2
49122
50029.2
762924
1131.75
831.564
2489.56
70935.1
39713.8
3418.89
19348.8
6194.76
765223
2287.14
2826.18
7039.27
1232.88
785407
746096
4442.4
48061.1
13507.9
37881.8
32048.9
24982
69515.6
34687.5
52876
11601.2
13248
812.38
27484.5
5550.75
1156.56
56434.9
7822.58
3783.64
25141.5
697.751
50810
4760.68
611300
30161.4
6849.52
7841.18
31556.1
43238.6
14907.6
38470.3
46803.8
33664.5
38899.8
800166
18481.2
345.081
23462.8
38598
18096
8862.74
73850.7
34969.2
127155
50676.3
1755.15
710.593
5404.01
14882.4
5334.13
67638.8
46964.4
10684.9
43723.3
1366.38
1266.73
10242.9
58240.7
32428.4
25990.8
19237.8
39157.6
16646.1
7178.5
39272.3
2643.62
778604
8640.8
33025.9
71996
38017
53938.5
36962.3
14247.3
12282.6
799978
17624.5
67704.9
32565.6
2741.7
33838
304089
205034
1042.84
30572.8
68231.3
11131.7
51909.5
20274.7
70777.2
34982.2
35868
734.729
46547.9
70077.2
47911.5
8629.26
305828
17031
3712.69
238.026
16273.8
70571.3
53403.1
51821.8
66551.3
31379.4
20205.1
18518.8
71389.3
24979.5
27354.7
16190.8
26150.2
7405.79
44035.2
21880.5
22058.4
20425.8
5278.67
34177.6
40112.6
63778.5
39114.8
3357.8
13791.7
36510.5
2401.21
1352.94
15806.5
713722
5776.24
1152.26
39487.4
3915.34
24183.3
35444.3
70856.3
72732.7
15445.2
1865.34
757.151
667165
37637.6
5724.35
16194.3
56582.4
10694.5
45194.8
48764
636.406
40823.6
93674.6
2046.45
18812.5
23391
24350.3
4896.61
578.335
561.165
404.07
630.106
513.509
287.885
666.658
670.516
674.873
41856
68673.6
3892.09
902.07
65992.4
2111.66
800168
3623.71
1185.12
32856.5
764.536
47480.3
2593.9
39425.3
2502.12
44759.2
29041.8
1366.22
16717.7
13198.4
37535.7
28198.8
38632.6
71991.2
27851.4
31112.3
251.237
14874.5
12170.6
27704.6
42025.8
54854.6
76729.2
4751.23
5789.49
4195.74
1136.67
2101.23
4522.44
51204.1
7685.61
1862.7
36967.5
4637.2
761352
21582.9
40476
54484.8
6122.74
742510
63646.8
30927.7
373.899
67903.6
1841.18
44111.4
75779.2
6216.39
24395
7486.87
3021.67
364408
16981.7
38298.5
30614
35444.1
8865.95
1211.95
22762.7
3310.55
34703
42225.9
7055.28
57241.1
8598.02
8295.88
57902.5
52564.8
7370.81
70848.9
36802
46547.9
554757
44565.8
42667.1
18765.5
1025.48
35763.4
33175.1
23966
19521.7
5751.87
23827.8
69735.3
494.094
1491.42
27457
65782.3
69196.8
13171.9
51979.8
799924
8777.96
71335.7
30677.3
51155.4
50148.4
1380.98
382042
39933.2
34958.8
65312.2
123772
10515
8839.8
18794.3
24.5004
27006.5
41580.5
3102.93
2473.3
1929.3
26462.2
11441.8
43287.6
74496.7
11740.4
25606.9
2960.06
26242.1
51976.9
33358.3
10763.7
13390.4
26863.2
55410.6
52717.2
24788.2
46649.4
2701.05
21372.7
12332.7
1978.97
9380.15
69899.4
8215.5
59517.2
800122
4535
32103.7
15511.8
34271.7
12141.6
2340.09
22942.7
16474.8
65108.4
19159.6
40693.7
35737.9
19063.3
18360.1
31733.3
52000.4
35566.2
19887.7
2831.23
16182
78698.9
3796.9
19223.4
14555.9
35895
42251.3
29861.2
36923.5
60350.1
5770.32
24347.9
128880
33360.2
15937.1
26046.9
70754.2
69853.2
49168.4
54173.1
68795.1
1164.28
39000.9
20.5513
43074.1
1932.34
29354.1
43468.7
54304.4
51825.6
73148.8
12323.3
46433.4
30922.2
53834.8
55457
37937.6
32759.8
52643.3
8462.8
23884
12833
66416.9
1332.55
2221.98
5798.96
15003.3
43960.9
65169.9
2352.66
3633.3
41498.5
21326.8
1236.35
3521.36
13203.1
13433.7
52122.7
14601.6
49135
21397.7
70704.1
33847.7
33523.4
68416.7
32669.6
33435.7
54820.3
108310
796720
11940.3
70931.8
29813.9
42543.7
50549.9
68417.9
35702.7
2021.22
2689.46
4215.68
4364.29
9901.28
1254.38
2039.26
314303
181841
10414.4
44743
25102.7
4777.3
72093.6
26167.5
53722.7
93969
19270.7
34500.1
3236.92
12092.7
770002
58125
22947.2
11755.2
29814.8
2113.35
1998.63
10744.2
48634.7
3560.97
10533.1
800034
328.14
29573.4
4732.67
35643.9
21801.2
72769.2
70519
31978.3
3126.44
34794.9
38200.5
54979.2
27296.9
3085.16
57967
34728.1
69856.6
6225.45
35158
2840.44
1268.43
74786.5
44163.8
38666.7
10441.9
33419.1
34138.3
33379
21505.2
47239.7
1183.23
33238
60053.4
21318.6
751829
31720.7
18485.9
3056.17
130526
36579.7
10209
3038.37
1050.07
15515.1
5510.31
33892.7
47624.6
3551.67
51159.9
1964.68
2952.12
19603.7
22958.9
3255.06
28533
17657
1490.66
1395.89
41320
5480.82
2442.27
34873.3
19123.4
4458.28
193151
48766
25698
46946.6
238295
15777
39798
70803.9
126745
24343.8
26302.7
695323
19353.9
421912
585.465
31065.4
773.919
1902.71
10684
73143.9
9634.12
18729.1
48709.2
84104.5
15033.1
640.906
6450.68
27096.4
18180.3
248.091
13022.1
5140.94
1389.82
34949.1
1419.58
33026.1
41343.8
19176.1
1135.7
22397.8
17050
65845.4
20741.4
36120.4
51121.1
25917.5
72874.5
2389.64
60182.4
38444.7
318.019
6446.4
5974.99
1675.66
8264.39
1878.79
37062.3
66122.5
23410
20766.5
10576.1
22722.3
30883.5
34890.3
724060
24439.3
13706
1736.27
13472.9
10305.7
73223.4
8950.57
88964.3
516310
68200.5
1197.16
74242.3
1149.33
982.73
59247.6
4883.6
5860.42
37193.7
23590.7
22640.9
7585.13
1955.44
33810.4
1221.68
609480
10739.4
31433.9
1175.05
67706.6
28960.7
13451.5
87651.1
575089
129.525
83198
1311.76
14140.1
3018.39
33810.5
18878.8
15077.7
6839.55
49119.9
12131.5
36447.7
64079.9
23030.4
2346.32
17701.9
36109.4
29274.5
46910.4
13030.2
29803
28790.8
3094.17
52528.2
12063.7
44867.3
25426.9
42628.2
1149.41
35216.6
1300.12
9596.41
26695.2
55116
31691.7
4769.12
24945.3
19181.2
34702.3
17150.8
77852.3
2444.81
19330.2
12137.1
34807.3
77633.9
4654.87
797597
64838.3
4448.14
55651.7
3601.18
199.555
20014.8
906.904
18383.1
53907.6
20205.8
48033.8
646572
2179.41
49398.6
255526
38575.7
22736.1
34917.3
11343.1
11603.1
41550.4
7016.73
2437.18
6471.99
12904.7
61510.7
8471.6
13030.7
4595.03
91595.9
47046.6
31715.5
12729.9
25542.3
2098.38
28.4733
69363.7
1276.78
35.6511
2681.53
9421.18
5998.14
44072.1
69264.7
34655.6
24984.8
11117.2
44218.4
1529.28
16811.3
66626.9
41557.1
14533.6
2055.47
71830.6
6193.72
1004.24
9045.24
469455
31337.7
58736
30125
51868.3
36376.2
702.582
52660.7
8817.88
2160.27
1137.24
1590.21
24537.9
38308.2
26551
42484.3
3173.04
2709.6
19229.4
6641.34
1480.36
61003
59107.4
69490.1
42962.2
35837.5
2596.76
312.104
36823.3
24086.9
13854.4
1094.51
1510.16
29433.6
70707.1
69158.9
16012.9
20086.2
76323.8
32962.3
11060.9
60682.4
1095.43
15453
49039.1
237543
10421.2
52791.8
30000.4
46974.4
1144.34
1054.69
2417.95
20706.4
12097.3
84265
28190.3
454.332
4780.58
32876
19020.2
847.494
27014.9
27061.9
41389.5
4670.89
27612.2
17414.9
2548.77
14202.7
22795.8
1106.65
41774.1
1824.8
39945.6
141.966
19423.7
78909.4
784.718
40978
44556.3
185429
633.871
4748.55
3432.37
7632.07
44507.9
18164
17550.5
183428
878.279
34310
15808.2
31511
12269.7
6837.55
47331.9
25888.9
3493.37
1002.32
34469
3905.13
8499.4
3636.34
1150.03
20549.4
27563.7
26501.5
18199.4
245875
19843.3
2436.66
2595.75
7404.73
32518.1
64006.1
44963.2
33658.7
67881.1
6439.54
13601.4
52334.5
59493.5
68218.2
5899.5
3728.9
9652.94
24115
15601.6
26760
24965.8
314270
100522
32438.6
52162.8
2007.8
45312.7
27456.2
1578.64
16831.9
14369.8
6499.22
71311.8
338459
19347.9
68502.3
35291.1
191221
26781
3009.68
73847.3
72310.1
42911.1
1141.48
287039
1359.25
35437
3934
790.467
2344.97
2332.07
46792.4
27788.8
32627.7
342147
35312.8
40587.1
47829.3
62283
64367.3
70601.5
34511.5
56585.5
1088.59
2248.7
16075.6
40477.5
8088.1
117.543
68718.3
104876
58786.9
16923.4
15506.9
19663.2
3418.79
9271.42
1885.21
36850.8
13611.8
129805
37941.5
45124.2
42201.7
584.865
22839.6
1172.08
54357.2
34349.9
745.336
4755.68
25303.2
35836.8
20406.4
695.258
1687.94
47818.5
55407.8
18914.6
23322.2
17175.8
13655.1
2060.67
4354.39
9159.48
28698.4
13663.7
36769
35325.1
52482.8
32135.2
7206
58751.9
67967.4
62182.1
38040.6
16169.9
33320.9
1666.71
4423.3
800143
10361.1
24553.7
24782.7
25236.8
2518.93
11237.8
65103.3
39332.8
315081
46257.8
794704
3816.42
39341
13251.7
14781.5
29835.6
1632.02
63582.7
79585.5
60610.8
5096.13
33396.1
1928.1
7864.32
8104.96
19711.2
11660.7
53548.8
10460.2
36310.1
2123.69
39656.9
34207.3
43662.1
32111.5
34159.6
22730.2
16763.9
993.755
773417
1098.79
20877.4
3671.99
18714.7
2407.02
5485.78
23584.8
1351.7
48206.5
2543.72
27631.8
2186.13
2059.56
12211.8
33394.5
13.2746
32687.7
22791.7
9708.49
36834.6
1114.84
12105.7
5036.57
16532
40346.9
51655.5
24499.6
37808.8
39286.8
53331.9
2975.45
35249.2
57617
21596.9
563.88
10659.1
3285.91
36959.7
7286.07
50321.8
635.622
12252.4
5607.11
5063.36
47319.7
22665.7
69564.8
36967.9
68302.9
1144.08
27430.2
61013.3
17758.9
522.12
46085.7
43000.6
4334.54
70465
34653.5
28380.7
96336.3
35478.3
76045
2516.74
22755.8
2249.18
18.6644
3861.98
20174.7
20879.1
10112.2
94182.8
42288.5
14102
38611.6
66390.9
20848.1
800163
1018.2
16915.4
57685.3
2553.16
145843
2953.88
75710.2
4450.77
7485.1
18397.4
28369.4
7308.59
30857.1
1118.12
31639.3
966.058
60577.5
194948
52238
4017.93
321165
5427.05
19782
33601.5
94.3831
18817.2
15229.3
13385.5
16327.2
13404.8
14132
20622.5
13154.2
54105
1400.2
44410.5
30533
40170.5
1903.14
46030.5
16219.7
645.645
1141.68
1149.87
362086
76312.5
55400.3
9233.64
748987
2591.85
6443.91
35578
6077.7
32235.6
796031
5662.97
663.842
44133.1
11808.4
799990
1243.9
50767.6
33805.8
8697.74
27957.6
11682.5
17344.9
3626.47
69363.9
179176
3275.14
300169
36507.6
4499.8
52844.3
4542.95
25811.1
19821.9
22373.4
4906.02
6057.53
28497.1
77699.6
42447.8
39062.4
2474.32
358124
7362.73
3670.92
39312.4
3142.76
248837
5072.05
70432
43098.6
14281.2
15336.7
13356.2
20351.6
580.985
46032.5
69316.9
6444.95
31368.8
28217.6
35655.4
71993.6
4905.67
11943.7
6446
40765.7
34424.1
39549
87973.5
23115.9
36567.4
28540.5
30646.6
11230.7
36205.3
12090.4
39752.4
12858.4
18177.1
5553.78
1967.07
43930.4
38549
40985.4
7651.94
63294.4
34442.9
9459.38
24040.1
581.588
9322.63
23214.7
12564.4
68122.3
4828.31
24039.1
62108.3
2718.5
10286
41726.7
7983.74
10624.7
35747.8
12449.3
163653
776364
17905.9
61184
20575
35710
1505.98
35507
7640.27
33176.1
24145.5
68443.9
2028.21
3160.58
1103.04
69730.9
1107.87
68932.5
5869.51
10023.4
1984.37
18542.7
24549.8
5043.39
3606.92
2044.18
5737.6
12782.2
654.515
49465.5
20195.1
43608.6
25118.5
1069.55
60347.3
15279.6
107963
39069.1
24400.1
1156.02
2210.21
37026.7
679.861
10092.5
41610.6
32374.7
37777
13528
38878.6
1410.52
902.204
419674
9817.56
924.768
70280.6
5141.37
29420.4
1094.11
31970.9
27456.9
35268.4
29534.4
2892.55
41635.9
24794.6
25334.5
32108.2
34444.3
176334
2462.49
13481.5
2536.73
1672.11
21763.3
11323.6
9057.34
77467.6
708227
47307.7
41699.2
76803.4
874.344
22700.1
25884.8
15123.3
27153.3
20369.7
10460.8
35944.5
16375
32058.1
12778.6
638.38
1964.78
24341.3
4507.76
1949.92
41087.6
29495.9
34206.1
32362.1
34469.1
16111.1
40283.9
25004.8
38179.2
42071.4
47300.7
2985.12
878.735
34123.8
34662.7
5219.25
43042.4
15141.7
39554
40305.9
12806.9
421841
66199.6
4701.36
15008.8
42767.3
8872.91
35001
1881.19
1615.22
128458
1622.42
18317.2
46489.4
20997.3
68498.8
51657.6
8428.06
36587.9
24726
11658.4
32973
34578.5
15932.8
52061.8
1783.79
47765
126360
40084.7
1988.62
670172
31822
44173.2
23889.2
4297.15
1186.28
798553
786345
35286.6
2698.49
5574.63
13946
33881.6
36448.8
24164.1
396080
29009.6
963.818
13943.7
70595
34425.5
26222.7
97325.1
29291.3
23818.2
5746.49
35799.3
38277.5
53325.9
418994
21528.5
36071.4
78247.9
69137
49989.4
339117
1383.16
43403
1316.94
24755.4
63711.6
14871.7
21465.8
3171.94
10425.6
35260.1
44048.9
11502.6
70724.1
34830.6
31137.2
54455.3
13170.6
39955.2
3048.78
35949.8
70809
5286.69
1207.15
11091.8
27683.5
3021.57
18045
7043.26
45021.2
35674.1
824.277
7554.49
1787.23
263034
48878.4
63587.5
10706.9
34280.9
70649.2
524689
52427.3
6995.81
23069.6
15862.3
21444.2
31137.9
7538.95
4783.47
40601.5
68822.4
16906.5
15535.8
3191.1
75682.7
70296.5
1054.64
5744.9
50258.1
12125.5
529557
12686.4
12344.4
19401.7
29329.7
9017.03
67916.4
3095.1
6482.32
44359.2
12841.4
63465.4
53738.3
21730.1
6159.31
15667.4
20471
43346.8
661131
8412.31
37356.6
488415
796787
69099.8
22612.5
4977.16
68243.1
6311.33
31161.4
963.717
6117.76
13747.2
64185
50192.7
22233.3
71304.7
12230.4
40340.8
1564.95
58169
77029.6
7238.3
153695
12870.4
31970.4
777274
795275
2678.45
21021.9
36055.7
4925.19
25466.2
41746.2
73027.1
28233
41917.7
46493.9
682.862
697.602
585.172
567.419
585.253
196.457
653.634
282.905
679.548
16590
1159.69
69697.9
24615.3
2523.95
71008.3
11884.8
40469.9
16133.1
21545.6
42055.2
39157.2
22774.4
15470.9
1526.13
60342.9
2104.14
8134.63
13967.6
32629.4
26078.9
4981.7
11628
41438.1
42235.6
41146.4
34198.2
42102
23062.9
10938.5
35212
833.168
3112.64
70476.1
380392
1644.45
35253.8
1715.53
2345.81
2221.53
2083.89
1831.7
35228.2
47701.7
68794.1
44499
14499.9
53601.6
27472.4
1032.42
12306.9
34397.1
52697.8
717.961
2001.06
55227.5
62822.2
1252.89
10283.4
60421
3207.58
61680
16887.1
19221.4
1065.31
16629.8
22140.2
3075.01
17581
5102.41
27719.7
15303.3
1102.64
2568.66
33438.9
62853.8
353860
44698.3
33950.4
5423.82
32950.9
19567.3
27673.8
3607.77
33015.5
768971
57655.8
30950.1
31962.8
51286.3
37125.5
1098.14
408664
27337.5
24128.2
32981.9
119777
39234.5
33455.8
24372
60032.1
34115.4
71180.4
19614.9
58616.4
11846.2
55175.7
44073.4
71024.7
2083.73
17868.1
13195
63924.6
4603.48
72227.9
5186.7
721.257
35096.8
40259.5
29637.3
10249.7
91471.8
996.34
30928.5
44029.8
991.523
67778.7
38466.9
41771.7
39804.7
65676.3
2793.31
13856.6
14692.7
1511.53
26886
19887
70321.2
25038.7
22086.3
70365.1
38678.3
19811.1
54352.1
44740.8
34328.3
1005.6
12195.8
23339.1
2439.83
59448.5
14429.2
37990.9
41387.2
32444.3
55450.9
18106.4
350.928
1837.11
1416.67
58842.2
46029.4
46945.1
69374.9
38526.4
45923.3
40669.6
19873.2
65305.6
12249.5
44097
25067.5
32787.3
768157
73243.6
347386
7297.12
34774.4
13446.4
10758.3
3251.66
29860.5
23950.4
17382
24031.6
32665.7
65764.8
23930.5
63908.8
53997.4
154288
22009.8
80193.1
387285
176541
11854.7
1032.62
45429.7
39574.7
40787.8
33997.8
3674.94
11135.8
14791.4
5594.92
31774.7
51343
32946.7
62213.8
69842.5
43196.6
26686.3
1010.23
127340
69939.6
3811.92
4840.93
20657.1
9455.45
72667.9
24339.9
1901.67
36427.6
5058.63
25241.5
53961.9
3516.12
69228.8
2856.5
190426
23754.4
59043.3
185399
5249.43
46215.8
557350
528906
12618.6
81978.4
18531.9
71777.5
42807.6
1677.02
5088.83
21238.1
71434.1
67189.7
40780.7
74778.5
5694.14
15341.5
16087.7
18883.2
7156.14
803.684
58639.4
34366.4
2311.52
31498.1
7186.87
33254.9
69894.5
19696.9
30358.9
2753.08
2305.36
1982.68
6329.48
686.541
1494.71
33252.2
2932.95
62254.2
72788.3
47627.1
31465.7
70366.3
25475.9
43119.3
197769
133530
39192.3
1812.78
17573.3
28468.1
70674
3261.95
53411.2
2470.24
15674.9
2497.41
3694.89
35138.2
3848.21
19179.5
36959.8
9382.15
859.44
704876
68875.6
5972.85
40008
43065
17675.6
72926.2
17743.5
50014.9
34963.1
63125.1
16567
35644.3
7615.5
470586
23126.5
29563.6
60428.3
28960.8
21546.9
10710.6
1135.49
164101
13880.5
22966.2
5277.32
3366.75
13083.6
15735
40760.8
19165.8
2748.52
70814.4
66557.5
36105.1
69179.6
69166.6
25298.9
6998.23
42404.6
17477.3
13225.2
7289.7
63185
67460.4
786373
35341.9
2074.15
3590.43
25959.2
69646.2
942.556
67828.9
626.645
793758
32580.1
2596.08
2648.01
18035.2
4272.79
68421.7
58715.2
74177.1
53711.9
48258.9
51718.9
29167.3
14201.6
49201.3
10009.4
592.771
33188.5
2397.93
13567.9
31573.3
46380.4
5952.35
70900.1
799725
55900.5
29168.1
1076.62
11005.5
70258.2
66584.1
6291.93
18075.7
12411
34871.2
17040.3
43596.7
12485.6
38760.6
67302.4
28438.2
35736.5
10597.7
31609.5
72555.3
3693.05
13069
44476.9
38467.6
50008.6
30905.7
69431.4
12873.9
11886.1
56019.5
25278.1
5469.39
69760.2
67665.7
2989.77
36828.8
35990.6
799741
10662.9
41563.8
72162.5
17491.6
36139.8
13986.6
24899.9
6272.63
38781.6
942.081
30980.3
34267.8
9859.73
2299.18
35841.3
20190.8
7134.11
39392.6
37969.6
9751.98
1811.09
26721.1
4025.21
23688.8
44473.2
1222.51
36055.5
25617.5
19025
8332.11
69230
37494.8
4646.87
88622.7
29265.5
118069
47850.3
3078.54
4161.27
38343.5
54676.3
33734
18138.8
15038.9
61041.6
33908
11324
70904.3
33985.5
34387.7
6657.91
9094.27
7045.95
58229.4
71242.9
40936.4
26744.8
11463
31450.7
68296.1
71316.3
5602.67
800165
3722.02
19044.2
378837
4581.64
77332.7
65915.8
50289
453.258
593.115
708.668
642.147
131.148
559.104
294.989
672.465
412.297
565.107
204.262
525.712
668.642
577.992
70626
37978.6
42677.1
17038.6
42218.5
5033.38
4868.04
1223.99
38486.1
7772.08
799547
784265
6065.53
14040
41436.4
12028.5
22212.4
67359
61663.2
53521.2
69874.9
1540.84
774570
33341
17166.6
54543.4
31158
53507.9
9983.98
71801.7
3948.84
20768.6
2259.89
35642.1
3120.62
796593
25689.5
52852.1
65327.8
41161.6
9771
39013.2
93160.6
12863.9
39445.8
17910.5
48284.8
7045.74
69425.8
4370.83
87786.9
61228.5
50429.3
48312.2
875.021
35648.6
56497.8
45092.1
38677.1
27115
48662.8
29315.1
70024.5
123168
21393.9
38141.8
25033.4
208942
4073.92
49347.5
42885.5
22383.9
31059.8