/*--------------------------------*- C++ -*----------------------------------*\
  =========                 |
  \\      /  F ield         | OpenFOAM: The Open Source CFD Toolbox
   \\    /   O peration     | Website:  https://openfoam.org
    \\  /    A nd           | Version:  8
     \\/     M anipulation  |
\*---------------------------------------------------------------------------*/
FoamFile
{
    version     2.0;
    format      ascii;
    class       volScalarField;
    location    "8e-05";
    object      nut;
}
// * * * * * * * * * * * * * * * * * * * * * * * * * * * * * * * * * * * * * //

dimensions      [0 2 -1 0 0 0 0];

internalField   nonuniform List<scalar> 
23640
(
0.00129574
0.00504006
1.97941e-05
0.1756
0.00506201
0.00160126
0.00402248
0.00200839
0.0055638
0.000505256
0.0120833
0.00511764
0.0027581
0.00498169
0.000810815
0.00121872
0.00070441
0.00452902
0.0104916
0.00573731
0.00744026
2.756e-06
0.00787492
0.000727046
0.00394204
0.00444339
0.00908003
0.00693003
0.000673556
0.00300817
0.00248536
3.5768
0.00694409
0.00565203
0.00384913
0.000550307
0.000724488
0.00166366
2.9297e-05
0.00143145
0.00539449
0.0052883
0.00460853
0.000109447
0.587501
0.00581167
0.00111024
0.00531166
0.000527595
0.00168448
35.118
0.00872843
0.000435462
0.00114398
0.190749
9.46942e-06
0.00216433
0.00509756
0.00345627
0.193105
0.00245656
0.00794744
0.0202546
0.00956304
0.00368344
0.00930382
0.00159988
0.00443011
0.000463484
0.00460928
0.00158695
0.00564202
0.00424501
0.000947463
0.00112206
0.606126
2.85346e-08
0.00269615
0.0104918
0.019368
0.00576394
0.00371497
0.00451944
0.00461398
0.00362077
8.15919e-05
0.00839797
4.06393e-05
0.000775591
0.000851259
0.00369094
0.00504183
0.00145631
0.00624053
0.0105547
0.00339781
0.00979326
4.97201e-05
0.0032425
0.00106577
0.00228683
0.00114452
0.000284902
0.00127768
0.0033131
0.00151448
0.012241
0.00140448
0.00581071
0.00371917
0.00230183
0.00459931
0.00575811
0.00542723
0.000358528
0.00115544
0.000727904
0.00217774
0.00123549
0.00311778
2.8239e-05
4.75551
6.15639e-05
5.22584
0.0073
0.000760191
47.9886
0.00224935
0.0016414
0.0054419
0.00762758
0.00350561
0.00277828
0.00821535
0.00171386
1.35732e-05
0.00867916
0.00417377
0.012065
0.00976042
0.00345179
0.00214889
0.00377802
0.0124219
0.00171818
0.00435602
0.0112493
0.00297885
0.00377817
0.000423842
0.00142617
8.34981e-05
0.00446304
0.0561873
0.00618453
0.00133015
0.00403395
0.00641282
0.000994337
0.00908067
0.000701533
0.000309199
0.000552537
0.0010028
0.000852092
0.00066291
0.00391201
0.00348078
0.0169029
0.00342702
0.00537961
0.000360303
0.00117904
0.00563581
0.0169127
0.0141142
0.00538406
0.000635593
0.0198229
0.00346514
0.586743
3.82947e-06
0.00413056
0.00715929
0.000641599
0.00782525
0.00817995
0.00182312
0.113836
0.00695804
0.00401197
0.0102569
3.13927
0.00445551
0.000770013
0.00075319
0.00327575
0.00145544
4.67678e-06
0.00540606
0.011293
0.000119893
0.00167649
0.00530767
0.00941832
0.00330281
2.05184e-06
0.00739355
0.000953217
0.00569174
0.00505785
0.00444614
0.00168331
0.00336052
5.21813e-05
0.00457871
0.00581145
0.00573027
0.00201017
0.000242422
0.00181801
0.0110465
0.0112366
0.0052196
0.00101837
0.00566448
0.00493713
4.62468
0.000239542
0.00371742
0.0014028
0.000826434
0.00591354
0.00446394
0.00632207
0.00391735
0.0018225
0.00461473
0.00382971
0.00346495
0.00247458
5.42263e-05
0.0053356
0.00496221
0.143188
0.00085991
0.00122499
3.53805e-05
0.0283151
0.000586903
0.240643
0.00446461
0.00109776
0.0160266
0.00329643
0.00151722
4.1472e-05
0.000839618
0.0302606
0.0198532
0.345519
0.00213457
0.0028665
0.00563101
0.00051706
0.00460236
0.00825405
0.00293597
0.00327111
0.00845129
0.00132428
0.000475533
7.26995e-06
0.140616
0.0019338
0.00578895
0.000602627
4.49997
0.0108898
0.00561199
0.000644596
0.000345199
0.0073509
0.0133065
0.00276916
0.00724789
0.00240201
0.00129836
0.00587282
0.0132006
0.00382777
0.000875225
0.0046943
0.00178074
0.0119295
0.00337658
0.00530715
0.000952754
0.00467033
0.000802012
0.00348979
0.0095681
5.72751
0.00484706
0.00837519
0.000526139
0.0038797
0.00648183
0.275175
0.00328714
0.000848069
0.00255353
0.017483
0.00856209
0.0107825
0.00822096
0.0019151
2.92338e-05
0.0106194
0.0021197
0.000957758
0.00581051
0.00377907
0.0068991
0.00169605
0.00214196
0.00236322
0.00336437
0.000813381
14.5364
0.00668697
0.00213083
0.00706101
0.00800944
0.00485854
0.00481519
4.49382e-06
0.00149972
0.00319677
0.0046367
3.42443e-05
0.00237813
0.00620415
3.77657
0.00665087
0.00450627
0.00766679
0.00498248
0.0056005
0.00606641
0.0195777
0.00197592
0.000906677
0.00216171
0.00378126
0.000633316
0.00157267
0.00204418
0.0183532
0.0113492
0.00804323
0.00989354
0.00951177
0.000720792
0.00470863
0.000334446
0.000410678
0.00114925
0.0108618
0.00317274
0.00175906
0.000184879
0.000868657
0.0108156
0.00727153
0.000933169
0.139697
0.000161005
0.00336562
0.00845767
0.00494405
0.000196439
0.00444289
0.00293421
0.00407447
0.00144441
0.000944334
0.000649864
0.00100783
0.000547006
0.0089081
0.000991259
4.06417e-07
0.000490863
0.00238465
0.00120791
3.84257
0.0016431
0.00106999
0.00695005
0.000155453
0.000340865
0.00207645
0.000507958
0.00267925
0.00480096
0.0961627
0.000714224
0.000959628
0.00106564
0.00140817
0.0274895
0.0179679
0.00567322
0.0118887
0.00531607
0.00712674
0.00303838
0.00386866
0.00590696
0.0319103
0.00861753
0.00462996
0.00135061
0.000685927
0.000652739
4.08321
7.10892e-05
0.00972693
0.00163732
0.000577941
0.764693
0.00512356
0.00713953
0.00820746
0.00701872
0.00197959
0.000689315
0.0025348
0.0791831
0.00805211
0.0152182
0.000248946
0.000677754
0.00875002
0.00209731
0.00721838
0.00111749
0.0114751
0.00114976
23681.1
0.00165585
0.0188499
0.00107774
0.00308934
0.00155758
0.00524276
0.0038316
0.0186421
0.000774003
0.00385868
0.00275235
0.00560304
2000.35
0.000892556
0.00314321
0.000864361
1.11934e-06
0.00174627
0.00396611
0.00758932
0.0036526
0.384865
0.000183611
0.000334767
0.00726682
0.00497205
178.32
0.00253273
0.401932
0.00232943
0.000609236
0.00703788
0.000704849
0.00108783
0.000739834
0.00348208
0.000163327
0.00251167
0.00132036
0.00851938
0.194278
0.00252174
0.000506729
0.00356429
0.00477172
0.00150878
0.00615077
0.00055532
0.00182687
0.00328833
0.0183009
0.000651281
0.00466371
0.00359904
0.00329236
0.00242823
0.000665532
0.000858269
0.00270733
0.00639848
0.000914496
0.000399346
0.000141755
0.00687572
0.00634791
0.00557075
0.000769899
0.00483246
0.0135579
0.00139605
0.00849683
46570.4
0.000526003
0.00584676
0.00577652
0.00580366
0.00455486
0.0051397
0.00345492
0.00499483
0.00120956
0.00305552
3.81853e-05
2.93052e-05
0.00306423
0.000473106
0.0028353
0.00122577
0.00610729
0.00109867
0.00361499
0.00347638
0.00460093
0.00106143
0.0046642
0.000571433
0.00152056
0.00355481
0.00359589
0.00288662
0.00449865
1.16186e-05
0.0002339
0.00257654
0.00299526
0.0047313
3.42661e-05
0.00913031
0.0199752
0.000162043
0.00448511
0.0047362
0.00535909
0.00977534
0.00764648
0.00143527
0.00935651
0.00102362
0.000628289
13210
0.00509974
0.0035575
0.00150868
0.00208568
0.0107675
0.000108404
9.84252e-05
0.00234068
0.000986886
0.864112
0.0060678
0.00201551
0.00455113
0.00866262
0.000735102
0.00088408
0.00230699
0.00440534
0.00956816
0.0277414
0.00371477
0.00538062
0.00481465
0.00332518
0.0105709
0.00569085
0.00788821
0.00363429
0.00159089
0.012299
0.0115412
0.0292363
0.00273513
0.00312992
4.05917e-05
0.0019894
0.000735056
0.00619767
0.00553618
0.00324603
0.00144399
0.00504917
0.00394237
0.00147607
0.00210249
7.47122e-05
0.00438459
0.00102744
4.0261
0.00958553
0.00523727
0.00681685
0.0289327
0.00480344
0.00989387
0.0049044
0.010688
0.00344295
0.000273425
0.000394662
0.00219999
9.61785e-05
0.00345052
0.000307776
0.261337
0.0033789
0.00511503
0.00161351
0.000689348
0.00484297
3.41147e-05
0.00402668
0.00276618
8.10095e-06
0.00607501
0.0106511
0.00760696
0.00144619
0.0050082
0.00127307
3.11579
0.00121664
0.00371604
0.00564133
0.052228
0.000567221
0.00349811
0.0028947
0.000166035
0.00699239
0.00559885
0.00113382
0.00197623
6.78107e-08
5.20624e-08
0.000846344
2.08819
0.00127504
0.00221652
4.5635
0.00387681
0.00496608
0.00130319
0.0109432
0.000960665
0.00305394
0.00515791
0.00138668
0.0187691
0.223569
0.00545976
0.00476922
9.55817e-05
0.00618991
0.00139447
0.14031
0.00490897
0.00526983
4.27669
0.000661074
3.83426e-06
0.00201137
0.0046824
0.00827721
0.000682854
0.00125796
0.00661991
0.00168303
0.0057173
0.778495
0.01093
0.00535424
0.000458895
0.00146046
0.00655657
0.000710455
0.00148813
0.00294155
0.00306777
0.00621613
0.000691699
0.000958821
0.000335385
2.39262e-06
0.00046235
0.00135372
0.00508684
0.00676549
0.000173816
0.00328331
0.00734189
0.00140733
0.000290424
0.00653716
6.27915e-06
0.000577214
0.000799335
0.00391564
0.117706
0.00643633
0.00189413
0.0152907
0.0022487
0.00115134
0.00555971
5.62188e-07
0.00540987
0.0168834
0.00646444
0.00125324
0.00618471
0.0176523
0.00136558
0.00120636
0.00541904
0.00199006
0.000172045
0.000659517
0.0032143
0.00868948
0.000409389
0.00437965
0.0029328
0.00477814
191.652
0.00869181
0.00151625
0.00834092
0.00128648
0.00204158
0.00350262
0.00310206
0.00462702
0.0981474
1.85154e-05
0.0137892
0.00601543
0.00613763
0.00650483
0.00135982
0.0061791
0.00569413
0.00574189
0.000672459
0.00281748
0.0132025
0.00518418
0.00971698
5.02147e-06
0.00223178
5.32404
3.4328e-05
5.92886e-06
5.60469e-05
0.172259
0.00753813
0.000944396
0.00674848
0.00580508
0.000206435
0.000701687
0.00222366
0.0034885
0.000279171
0.00181217
5.44182e-05
0.0138486
0.000878117
0.00122886
0.00412595
0.00208971
0.00370607
0.00226806
0.00132711
0.0575241
0.00522792
0.00903814
0.00990237
0.00314633
0.000400395
0.000884743
0.00470826
0.083562
7.47092e-05
0.00414936
0.00399071
4.15474e-06
0.000811685
0.00611973
0.0054457
3.88416e-08
9.28944e-06
0.00695579
1.89402e-05
0.00245139
0.00756732
0.00203451
0.0014928
0.00317782
0.00314405
0.00860703
0.00155419
0.0104209
0.00573637
0.00498944
0.00137994
0.00888798
0.000127788
0.00290895
0.0100772
0.00303326
0.012446
0.00559778
0.0010975
0.00143654
0.0589319
0.00318367
0.00106702
0.00516425
0.00307267
0.00279624
0.00122579
0.00110351
0.0108284
14637.1
0.00224268
0.00398383
0.00422456
0.00265436
0.00310883
0.0010485
0.00348601
0.00213676
0.00835454
0.00260115
0.0123495
0.00177327
1.07802
0.000449087
0.00220007
0.00262792
0.014947
0.00997112
74.556
0.000693423
0.00227148
0.00242099
0.0013651
0.00053943
0.00232247
0.0030979
0.00982934
0.00256501
0.00133475
0.00288149
0.0181484
0.00747001
0.131713
0.00142839
2.32085e-05
0.00858775
0.00601771
0.000163042
2.83197e-05
0.00618523
6.02574e-06
0.00114757
0.000162785
0.00117646
0.0109132
1.93316e-06
0.00473691
0.00254459
0.00383272
3.49449e-05
0.00453933
0.000787726
0.00358871
0.00129761
0.00277488
0.000536971
0.00055552
0.00403186
0.0167058
0.00327473
0.00825842
0.020879
0.00925045
0.0139379
0.000388368
0.00225972
0.00309885
0.00091735
0.000518674
0.000509049
0.000782927
0.00520462
0.000432127
0.107366
0.0102734
0.00586739
2.70736e-05
0.0039417
0.424025
0.00442745
0.000493771
0.00257877
0.00365645
0.0213742
8.87917e-05
0.000396111
6.2028e-05
0.00122005
0.0144807
0.0022522
0.00493997
0.00249597
0.000881258
0.00210297
0.0052937
0.0110972
0.00142277
0.000279536
0.00452483
0.00305913
0.00706768
1.43557e-05
0.00480731
0.00131887
0.00314175
0.0035712
0.00879882
0.00106932
0.00602078
0.000957484
0.00459264
0.0739032
0.00391125
0.00440847
0.0114764
0.00101895
0.0105558
0.00522464
0.000167091
0.00274199
0.00453285
0.000322526
0.00569652
0.00866116
6.12269e-05
0.00488004
0.00595075
0.0047463
0.00448394
0.00478522
0.000103222
0.0026712
0.00210358
0.0106972
0.00132086
0.107106
0.00373317
0.00451152
0.00248263
0.00498783
0.089428
0.00341142
0.00420481
0.00134947
0.0025367
0.00108848
0.00951013
0.00694224
0.000651169
0.00779512
0.003044
0.00103196
6.21163e-06
5.09282e-06
0.000464633
0.00365396
0.00164509
0.00396776
0.000627781
0.00203962
0.00106433
0.004103
0.00574061
5.8247e-08
0.00908688
1.60017
0.000304004
0.00133679
0.00701627
0.000479056
0.00527752
0.0388622
0.000112738
0.00440968
0.00956046
0.00629429
0.00187681
0.00602457
0.0015486
0.00367457
0.00294755
0.000953425
0.00426224
0.00128802
0.00139223
0.00573988
1.66143e-06
0.00400926
0.0014391
0.00478826
0.00622205
0.00702067
1.20661
0.00301041
0.00583091
0.00495356
0.667105
0.000865544
0.00495004
0.00346911
0.00794359
0.00301418
2.10144e-07
0.00611764
0.0023252
0.000906778
0.000672842
0.0304756
0.00461043
0.00067322
0.000235983
0.00718864
0.00716696
0.000334659
0.00486184
0.000495078
0.000625188
0.00146609
0.00172692
0.00316169
0.00857475
0.0024581
0.0046706
0.00147391
0.00282053
0.000513287
0.00311329
0.00802933
7.68586e-07
0.00069993
0.00173744
0.0108294
0.000677376
0.00505084
0.00687549
0.00371102
0.00298956
0.00232213
0.000561282
0.00277925
0.00287293
0.0012024
0.000300171
0.00421766
0.00414367
0.000188331
4.57944e-05
0.0967436
0.000702284
0.00633225
0.00624733
0.000600994
0.00469871
0.0070737
0.00191352
0.00277456
0.00250884
0.00255379
0.00292718
0.00452604
0.0054657
0.00865532
1.09926e-06
0.00741697
0.00420237
0.00260537
0.000888001
0.000751005
0.000960927
7.68389
0.00361284
0.00597325
0.00360031
0.715739
0.00572733
0.000200717
0.000205925
0.0170577
3.49048
0.00137209
0.000233444
0.00306315
1.71182e-06
0.000674361
0.0109372
6.12336e-05
0.000890527
0.0105272
0.00241819
0.00173182
0.0905328
0.0232713
0.000545057
0.00818705
0.00207214
0.00178041
0.00373959
0.00109009
0.00572603
0.000786792
0.00679719
2.2436e-06
0.00762922
0.00870864
0.00490314
0.000123557
0.00602489
0.00174095
0.00202617
0.00506265
0.00575129
0.000785716
0.00703689
0.00891428
0.00353667
0.000180739
0.0040005
2.7634e-05
0.000472173
0.000870289
0.00355594
0.0057642
0.00560653
0.0040893
0.00116861
0.0091658
0.0092154
0.000663709
0.000722175
0.00861412
0.00188434
0.000862045
0.000676865
0.00259848
0.00294322
0.00319211
0.000930216
0.00305381
0.00441017
0.00521747
0.000790646
17516.9
0.00166888
0.012858
0.00501128
0.00378657
0.0130336
0.0058389
0.00113027
0.00742975
0.000267302
0.000875347
3.6289e-05
0.0113698
0.000451776
0.00597294
0.00637621
0.00596463
0.00109928
0.00450532
0.00248944
0.00945971
0.00267026
0.000189855
0.00526186
0.000203072
0.00334711
0.00681064
0.0110169
0.00617643
0.0221107
0.00561858
0.473421
0.00511768
0.00040942
0.00490615
0.00956474
0.00329712
9.08354e-06
0.00420177
0.00593817
0.00207665
0.000185542
0.00429094
0.00572656
0.00332194
0.00123395
0.0122081
7.6256e-05
0.000328167
0.00430468
0.00368206
0.00179451
2.34792e-06
0.00703208
0.000229
0.00545962
0.00144681
8.86671e-05
0.00807709
0.00225817
0.000655822
0.00214243
0.00417354
0.0145058
0.00266103
0.00284439
0.00892081
0.00408842
0.00363497
0.00472259
1.73758e-06
0.000683107
0.00383573
0.000117025
7.26248e-05
3.97814e-06
3.35761e-05
0.00405298
0.00909138
0.00816976
0.0128185
0.00520353
0.0033477
1.59198e-05
0.00794864
0.00504815
0.0121018
0.000379547
0.00301928
0.00106031
0.00259456
1.41045e-06
0.00537526
0.00526126
0.000995346
0.000613028
0.00334163
6.72669e-05
0.00864595
0.0096376
0.00480335
0.00168306
0.00429125
0.00512098
0.00211171
3.8129e-06
0.00244255
0.00215961
0.00240591
41641.3
0.00138988
0.002359
0.0038751
0.0093083
0.0113368
0.0090742
0.00378036
0.000227947
0.00765207
0.0111142
0.00406943
0.00550842
0.00120431
0.00452415
0.00049208
0.00158881
0.00554887
0.000818607
0.00197706
0.000679248
0.00268811
0.000355529
0.00657398
0.00421436
0.00547371
0.00247091
0.00531304
0.0160695
0.00382637
0.00420078
0.00545056
0.0168932
0.0140968
0.00111204
0.000394474
0.00318802
0.000184638
0.00160638
0.00287543
0.00428138
0.0122195
0.00073357
0.0229129
2.1758e-05
0.00578323
0.00220599
0.00367296
0.00573167
35.7709
0.00158211
0.000184993
0.00301336
0.00366118
8.472e-05
0.00250928
0.00276289
0.00418159
0.00465172
2.79019e-05
2.70039
0.00339002
0.0882381
0.00201493
0.00124163
0.000658406
0.00542393
0.00529716
0.00477352
0.000116946
0.00981825
0.0037726
1.06394e-06
0.000562895
0.0046908
0.00221204
0.00230851
0.0072186
0.000986716
0.00207873
0.00451964
0.00722144
0.0159824
0.0080759
0.004742
0.00146932
0.00142292
0.000800417
0.0022536
0.00443518
0.00700325
0.00898499
0.0060794
0.00585979
0.00575683
0.000513642
2.86849e-05
0.000767562
0.000196725
0.00108451
0.000468683
0.0132714
0.0103496
0.000679462
0.0057326
0.000943082
0.000284653
0.000345336
0.000498631
0.00510825
0.00154498
0.00493236
0.00372839
0.00437126
0.0111236
0.00652569
0.00526214
0.0234919
0.00125284
0.000125258
0.00135916
0.00483781
0.00168654
0.00672614
0.0028474
0.00501786
0.00208418
0.000112856
0.00198251
9.61322e-07
9.6797e-05
0.00164795
0.00892779
0.000805747
0.00211922
0.00308702
0.00125678
0.000354331
0.000560507
0.000252656
0.000248799
0.00329613
0.0104943
8.74922e-06
0.00276509
0.0715809
0.00281791
0.00574232
0.00163282
0.00305404
0.0100173
3.33397e-06
0.522251
0.0527993
0.0044333
3.69802e-05
3243.45
0.0024771
0.00471097
0.0021498
0.00709287
0.0052239
0.000763637
0.00767253
0.00565759
0.00534477
0.000114651
0.00435396
0.12219
0.00203669
0.00511939
0.00876896
0.000572159
0.00010715
0.0023048
0.00349257
0.0157339
0.0214295
0.000613702
0.0042479
0.0139563
0.00134742
0.000773059
0.00467054
0.000531835
0.0084735
0.00168922
0.00207267
0.00414762
0.00468628
0.0108686
0.00482467
0.00293294
0.00534744
0.00551851
0.00256114
0.00497689
0.0417581
0.75517
0.0183799
0.191284
0.000634973
0.00663364
0.000883128
0.000651167
0.00538064
0.0035732
0.0039475
0.00309314
0.0107477
1.52253e-06
0.00281816
0.0108034
0.00393311
0.138112
0.0340708
0.0133252
21480.8
0.00193081
0.00472616
0.00632668
0.0054759
0.00616181
0.00246612
0.000652775
0.000321621
0.00167644
0.0046479
0.00504403
0.00172648
0.00527878
0.0201122
0.00102306
0.00529621
0.00567708
0.000403428
0.00184577
0.014541
0.00397043
0.00134144
0.0148997
0.000912444
0.00124964
0.00297105
0.00510711
0.00186563
0.00559106
0.00129831
0.00582194
6.70562e-05
0.00616858
49.3986
0.081259
0.00106236
0.000232439
0.000233108
0.00260056
0.000335247
0.00295719
0.00437108
0.000209915
0.00601231
0.0039413
0.00925731
0.0010541
0.00167458
0.00175543
2.09071e-05
0.00454226
0.00566765
0.00547281
6541.47
0.00454693
0.00205232
0.00107385
0.105564
0.00356517
0.00541961
0.00926686
0.00162795
0.00718907
0.003725
0.000534657
0.00717117
0.0932031
0.00617673
0.00697784
0.00104886
0.000966614
0.0108701
0.000326025
0.0022341
0.000856027
0.00837441
0.00471261
0.0190774
0.00849018
0.00636396
0.00499248
0.000620887
0.00536799
0.00494008
0.00908465
0.00101562
0.000769944
2.29006
0.0101898
4.41157e-05
0.00212289
0.000316926
0.00197035
0.00261197
0.0076551
0.00353684
2.04239e-05
0.0272537
0.0214264
0.00246092
0.00235986
0.0294274
0.000307571
0.00708424
0.00556079
0.00576706
0.00572078
0.000673541
0.00397653
0.00505813
0.00498069
0.00164132
0.00749576
0.0142243
0.00749899
1.20962e-05
0.00235751
0.00310591
0.00594154
0.489879
0.00555275
0.00994038
1.28098
0.00515866
0.00546924
0.00186209
0.0691102
0.00109047
0.0031694
0.00178122
0.00601204
0.0317587
0.000676587
0.00324987
0.000446021
0.00349338
0.0072437
0.00184602
0.0110047
0.000759964
0.002984
0.00622065
0.00571267
0.0068464
2.5705
0.000561953
0.000184116
0.00100569
0.00787977
0.00443932
0.00102732
0.000169969
0.00273341
1.87978
0.00159809
0.000673432
0.00300355
0.000526594
0.00635552
0.00619444
0.00296508
0.00709252
0.00449621
0.00645404
0.00336712
0.00584512
0.00823972
0.00595263
0.00594219
0.00399459
0.00512532
0.000243732
0.00142822
0.00328344
0.000748292
0.0080312
0.00381419
0.00270356
0.000519273
0.000528418
0.019151
0.00130966
0.0803923
0.00142406
0.00217557
8.99967e-05
0.00432113
0.00898032
0.0053382
0.00761303
0.00950167
0.0062047
0.00489268
7780.13
0.00102788
0.000139151
0.00548522
0.00751297
0.000577829
0.00338021
0.0330783
0.006849
0.0170985
0.0173569
0.000736265
0.000325357
1.3686e-05
0.00400644
2.05271e-05
0.00481379
0.0112729
7.51647e-05
0.0115739
0.00113649
0.000571998
0.0010164
0.00952309
0.00654823
0.00353755
0.00495937
0.0100354
0.00509497
4.72902e-05
0.00159997
0.000490782
4.90675
0.0018575
0.00601202
0.00908104
0.00310068
0.00279536
0.00299817
0.000114876
0.00421071
662.381
0.00427507
0.00938471
0.00611075
0.00130002
0.000990155
0.188034
0.114155
0.00083544
0.00493702
0.0108953
0.00115525
0.00765281
0.00135743
0.0103703
0.000975684
0.00231052
0.000545218
0.00905464
0.0082953
0.0162213
0.00358732
0.119527
9.96576e-05
0.00267727
4.60052e-05
0.00508649
0.00870014
0.0161408
0.00551036
0.00863932
0.00133927
0.00533057
0.00139337
0.008997
0.00502795
0.000434227
0.00492313
0.00322145
8.41648e-05
0.0104953
0.000283642
0.00113105
0.00141972
0.00289877
0.00625409
0.00424911
0.00709617
0.00443101
0.00261789
0.00454851
0.00418776
0.00188475
0.000899708
0.00238907
1.94147
2.34144e-05
0.000834533
0.00488355
0.00276151
0.00279591
0.0059506
0.0104458
0.00652773
0.00418069
0.00131018
0.000549899
1.31082
0.00184432
0.00258115
0.00506797
0.0107426
0.00382419
0.0147493
0.0148408
0.000386158
0.0122327
0.0109995
0.00156552
0.00493453
0.00229424
0.0032487
0.00310109
0.000375558
0.000418741
0.000172748
0.000363758
0.00023709
0.000121705
0.000519581
0.000441479
0.000493702
0.00666518
0.00765756
0.00095314
0.000622431
0.0108268
0.00157003
12878
0.0016739
0.000694993
0.00515187
0.00024154
0.0107266
0.00177226
0.00353233
0.00198213
0.00545378
0.00261236
0.00114445
0.000689594
0.0040616
0.00666993
0.0007619
0.00251812
0.00360022
0.00582563
0.00611584
9.18275e-05
0.00017886
0.0041128
0.00174063
0.00248554
0.00194552
0.0281863
0.00311672
0.00338607
0.00292501
0.00027972
0.00134078
0.00286474
0.00612779
0.00329467
0.00158884
0.00905104
1.91929e-05
0.31744
0.00489224
0.00171732
0.00592037
0.00303402
0.307688
0.00754734
0.00485272
0.000125203
0.00393765
0.00123054
0.00895216
0.028609
0.00299751
0.00536882
0.00325229
0.00250346
0.277176
0.000123238
0.0012295
0.00528063
0.00242894
0.00420515
0.000738252
0.00108846
0.001588
0.000909274
0.00485975
2.67313e-05
0.00455743
4.59183e-05
0.00315738
0.00547214
0.00598682
0.00306503
0.0104125
0.00300485
0.0163346
0.334192
0.0106246
0.0128518
0.00529684
0.000410876
0.0056186
0.00685839
0.000423706
0.00030294
0.00337719
0.0052657
0.00843158
0.000225549
0.000705128
0.00564083
0.0105639
0.00881604
0.00152101
0.00896261
491.444
0.00103167
0.00533301
0.00552806
0.00572748
0.00864948
0.00063163
0.30256
0.0020231
0.00127151
0.0106172
0.0653424
0.00379375
0.00350501
0.00482568
3.43418e-08
0.00575686
0.0070326
0.000719699
0.00217067
1.36197e-06
0.00269346
7.06006e-05
0.0013029
0.00381108
0.00399629
0.000677545
0.00244302
0.00329594
0.0155769
0.00273971
6.2361e-05
0.00461409
0.000602813
0.00627194
0.00713104
0.000540979
0.0103979
0.00229585
0.00484035
0.00409892
0.00169275
5.81026e-05
0.0033484
3.90154e-05
0.00997916
375.815
0.00299323
0.0056231
0.00443899
0.00358811
0.0039145
0.00185744
0.00501283
0.00438715
0.0061826
0.00183382
0.00198237
0.00474291
0.00605341
0.0042259
0.00155241
0.0181602
0.000929595
0.00209987
0.00109301
0.000140301
0.0028568
8.61499e-06
0.00493657
0.000171326
0.0044554
0.00643327
0.000897128
0.00387664
0.00654459
0.00340284
0.00182966
0.0640934
0.00546697
0.0052773
0.00120738
0.00555176
0.00756235
0.0170277
0.0109537
0.00980187
0.000277434
0.00339982
3.80534e-08
0.0124399
0.00147542
0.00219952
0.00324169
0.00787813
0.00564815
0.00767531
0.00369771
0.00280203
0.00312511
0.00671092
0.0108146
0.00652598
0.0023838
0.00895219
0.000327753
0.00547179
0.00406448
0.00754361
0.00107341
0.00105773
0.00260382
0.00426473
0.00244716
0.00187818
0.0017556
0.00188106
0.00154606
0.00455974
0.000485565
1.02108e-05
0.00199103
0.00437536
0.00421753
0.000525692
0.00726509
0.00035682
0.00872193
0.00461496
0.00252231
0.0102554
0.00602068
0.00426883
0.0107007
0.0531892
7.94346
0.00385235
0.00765884
0.00407187
0.0024705
0.00628863
0.00983126
0.00287212
0.00147426
0.00198312
0.00195459
8.01148e-06
0.00445093
0.000621409
0.00133423
0.195002
0.100353
0.00279638
0.0150629
0.00304384
0.00311871
0.00826067
0.000706502
0.00768856
0.0441547
0.00396405
0.00238228
0.002578
0.00387682
2.55577
0.00587719
0.00209838
0.000216246
0.00572521
0.00144741
0.000839921
0.00469273
0.00948129
0.00263969
0.00466667
128.26
0.000128788
0.00388581
0.00311322
0.00557637
0.00124303
0.00754284
0.00362791
0.0060723
0.00251254
0.00475479
0.0017047
0.0168561
0.000638509
0.0024875
0.00334009
0.0053174
0.00861835
0.00348643
0.00333514
0.000708352
0.00077643
0.0260881
0.00930401
0.00676104
0.00459834
0.00587985
0.00536203
0.00536743
0.00103115
0.00531579
0.000753311
0.0021259
0.00740326
0.00570612
1.28785
0.00616481
0.00444717
3.85543e-06
0.0554924
0.00301112
0.00373234
0.00244874
0.00050106
0.00550641
0.00201307
0.00583351
0.00721987
0.00228128
0.00505496
0.00166262
0.00245641
0.00173632
0.000384009
0.00253033
0.00607059
0.000269934
0.000792331
0.000841106
0.00631357
0.00253402
0.00145728
0.00598948
0.00489316
0.00290631
0.114702
0.00750416
0.00037632
0.0168127
0.107303
0.00551617
0.00116971
0.00411075
0.0541866
0.000583112
0.00242021
0.123854
0.00605976
0.15156
0.000259581
0.00534202
0.000267365
0.000810201
0.00469181
0.00656528
7.58132e-05
0.0044813
0.00665693
0.00417205
0.0035922
0.000484676
0.00361485
0.00609393
0.0048659
9.54522e-05
0.00443395
0.00285583
0.000835429
0.000782359
0.00108922
0.00691668
0.0126072
0.00022155
0.00082302
0.00114433
0.000364289
0.0086563
0.00130178
0.00608868
0.00588388
0.000441312
0.00729928
0.00159158
0.00831965
0.00174399
0.000103596
0.00305314
0.00342858
0.00146394
0.00333767
0.00129128
0.00667184
0.0264483
0.00541737
0.00489387
0.0037876
0.000278789
0.00183638
0.00548085
2.33037
0.00558469
0.00453329
0.00107083
0.00415846
0.00152196
0.0056949
0.00341101
0.0395783
0.0555529
0.027526
0.000817691
0.00726358
0.00056353
0.000431007
0.0053593
1.68539e-05
0.00340463
0.00485766
0.00102941
0.00558673
8.35124e-05
0.000874597
0.00159273
0.000815601
0.117132
0.00384816
0.002458
0.000677041
0.00903365
0.00557991
0.0042164
0.0364364
0.170395
4.85124e-05
0.0374846
0.000871219
0.00431992
0.00247352
0.0047139
0.00182557
0.00437248
0.00320561
0.0143711
0.00407818
0.00207871
0.00183475
0.0027113
0.000450164
0.00471358
0.000458906
0.00565113
0.0167369
0.00495728
0.000798646
0.00432659
0.00251975
0.0059462
0.00404182
0.00346324
0.00286853
0.0127027
0.000768139
0.00131825
0.000637277
0.00361977
0.00242389
0.00723866
0.0024322
1.47815e-05
0.000355571
0.00518225
0.00271961
0.000301035
0.00618612
0.00187859
0.0017656
0.00395695
0.00540792
0.00631981
0.00308887
42.8702
0.00820603
1.48201e-05
0.00621695
0.00184491
7.14263e-05
0.00521317
0.00030682
0.000208477
0.0108025
0.00525965
0.00707236
1.14698
0.00174905
0.00877612
0.168975
0.00948819
0.00610618
0.00580809
0.00341797
0.000124638
0.00306762
2.77237e-05
0.00187807
0.00358588
0.00199059
0.00281959
0.00407608
0.00505074
0.00307454
0.0390181
0.00890545
0.00132044
0.00334833
0.00571876
0.000983708
4.02433e-08
0.00854013
0.000833748
4.23196e-08
0.00228071
0.00143413
0.00186979
0.00341897
0.00902971
0.0017437
0.00552805
0.00124772
0.00422985
0.000800329
0.00522567
0.003871
0.00151794
0.0042414
0.00144449
0.00828173
2.82284e-05
0.000681637
5.49388e-05
0.0183131
0.00217695
0.00607623
0.000873254
0.0168665
0.00654115
0.000415187
0.0106536
0.000334884
0.00145262
0.000653312
0.00131468
0.00257383
0.00375339
0.00132784
0.00630164
0.0025349
0.00188804
0.00488462
0.00367807
0.000803293
0.0083393
0.0031404
0.00911433
0.0136146
0.00168804
0.0020508
0.000116889
0.0054756
0.00541882
0.00525453
0.000556583
0.00123808
0.00439489
0.0103265
0.0100179
0.00259041
0.00325159
0.0064166
0.000747196
0.00112349
0.0236385
0.000547324
0.00126083
0.00941775
0.0994072
7.36835e-05
0.0108785
0.000884984
0.00663012
0.000838947
0.000676814
0.00212085
0.00513506
0.00397373
0.0285885
0.00515576
0.000176648
0.00312427
0.00199752
0.00493084
0.000647719
0.000644104
0.0057341
0.00485976
0.0013851
0.00376007
0.00104645
0.0020424
0.00432536
0.000301765
0.000424215
0.0126069
0.00126097
0.00420094
9.21093e-07
0.00431929
0.00543431
0.000374678
0.0105823
0.00960813
0.106908
0.000181129
0.00300795
0.00180561
3.47596e-05
0.00605666
0.00486605
0.00415807
0.106792
0.000723752
0.00115908
0.00290273
0.00143434
0.00411211
0.00185231
0.00650428
0.00523372
0.00218912
0.000690716
0.00622726
0.00221565
0.00205055
0.00202969
0.000568236
0.00545857
0.00561355
0.000621874
0.00477703
0.157111
0.000368195
0.000586503
0.00124297
0.00275351
0.00154087
0.00634817
0.0152929
0.00107833
0.00392252
0.00312571
0.00505399
0.00666363
0.00539011
0.0291697
2.2762e-05
0.0027134
0.00112739
0.00507697
0.000643377
0.00580562
0.00564366
0.214693
0.0489774
0.000713119
0.0147524
0.00137383
0.0155847
0.000610832
0.000668842
0.00158871
0.000119826
0.00294857
0.00850989
0.0116874
0.00493777
0.00754799
0.00547703
0.101913
0.00630875
0.00245661
0.00732588
0.00769023
0.00245731
7.47643e-05
0.14158
0.000966332
0.00286472
0.00272731
0.000245567
0.00134071
0.0013457
0.0012259
0.00557725
0.00194154
0.157986
0.00437831
0.0105679
0.00282151
0.00517522
0.00711175
0.00823458
0.000787082
0.00642664
0.000429093
0.00197559
0.00457871
0.00600403
0.00331557
7.85815e-07
0.00929004
0.0176683
0.00782583
0.00463312
0.000164341
0.00501837
0.00264488
0.00434086
0.00118678
0.00553759
0.00418013
0.0398486
0.00198227
0.0058323
0.00653632
3.45375e-05
0.00543502
0.000666067
0.00589965
0.00772454
0.000467845
0.00308319
0.000408932
0.00496852
0.00523918
0.000396978
0.00114407
0.00741755
0.00375069
0.00534024
0.00297721
0.00480496
0.0044756
0.00154107
0.00292875
4.79572e-05
0.000775742
0.00521769
0.0012786
0.00462745
0.020352
0.00105676
0.0038088
0.00306692
0.00878405
0.0217478
0.00184302
0.00489857
0.00419277
0.000906519
0.0011939
109.266
0.00376307
0.00548335
0.00206986
0.00530017
0.00225682
0.00379211
0.00553328
0.0104091
0.101
0.0162464
24.0018
0.00210568
0.00268689
0.00472013
0.00357434
0.000471318
0.00110668
0.00316169
0.00528565
0.00835258
3.2739e-05
0.00131022
0.000864851
4.08024e-05
0.00303001
0.00320405
0.00488298
0.0187085
0.00162363
0.00557838
0.00128588
0.00265265
0.00235241
0.00651897
0.00638449
0.00256782
0.000272982
0.00521443
0.000406193
2.9262
0.000700484
0.00155701
0.00105445
0.00498308
0.00168311
0.00252909
0.00614764
0.00103719
0.00730839
0.00208905
0.000446754
0.00166814
0.00184038
0.0040385
0.005391
2.28463e-08
0.00672954
0.0053498
0.00383858
0.00874335
0.000768092
0.0040401