/*--------------------------------*- C++ -*----------------------------------*\
  =========                 |
  \\      /  F ield         | OpenFOAM: The Open Source CFD Toolbox
   \\    /   O peration     | Website:  https://openfoam.org
    \\  /    A nd           | Version:  8
     \\/     M anipulation  |
\*---------------------------------------------------------------------------*/
FoamFile
{
    version     2.0;
    format      ascii;
    class       volScalarField;
    location    "8e-05";
    object      p;
}
// * * * * * * * * * * * * * * * * * * * * * * * * * * * * * * * * * * * * * //

dimensions      [1 -1 -2 0 0 0 0];

internalField   nonuniform List<scalar> 
23640
(
57.0811
194.244
15.375
58105.3
189.651
902.512
84.7255
374.439
523.413
1219.41
52294.4
170.287
129.024
165.598
1338.64
850.153
26.4383
33321.2
44071.5
467.549
50143.7
11.5828
49773.2
49449.3
265.594
128.87
4017.4
677.089
16.4292
220.069
100.878
89059.4
50244.9
245.685
521.703
1404.47
27.9226
56.6415
19.9158
54149.6
199.533
536.355
169.119
17.1579
59402.4
5551.6
51.9603
181.26
1188.14
329.064
81864.5
34815.7
1238.37
31.4904
58060.3
1154.68
1007.2
226.248
50.4957
62012.5
96.7361
5750.46
56112.6
36433
68.7224
36215.2
664.841
242.574
28531.6
176.403
55694.8
242.837
44451.9
25.7913
787.19
88209.8
1269.86
123.555
44458.7
55672.3
6806.84
1340.22
104.652
105.426
62.4176
1354.79
34587.8
52917.3
45489
1460.09
62.7537
230.741
1140.2
44639.2
34134.4
206.53
37299.9
1252.49
465.13
1114.41
892.278
31.6457
49400.8
59.1384
486.201
54.4886
58318.7
45.7682
186.081
439.06
85.7296
44582.5
288.885
213.975
3391.32
29.9538
1338.56
79.2861
51.7718
230.365
49938.5
63849.2
1165.94
69608
1504.54
52451
85004.5
1824.28
898.148
210.651
1076.62
804.901
136.291
2347.73
59.1924
52827.1
51759.6
253.174
52021.3
39007.5
462.098
1027.47
43792.5
52331.3
43444.2
334.514
53400.1
54180.7
66.5432
31353.3
340.294
976.164
102.565
56603
804.994
41.5896
85.0842
254.564
662.064
3950.72
1490.91
1189.63
1320.46
590.115
22.7841
20.5208
57052.9
3688.2
58366.6
797.682
179.239
3331.78
754.052
177.023
57036.6
57139.9
210.834
3332.47
55775.4
230.666
59290.9
1274.23
251.651
500.938
18.8213
17239.7
1452.66
1006.89
62784.2
560.297
725.338
52690.5
62941.9
100.58
21.7808
53728.2
507.89
1185.43
1495.05
2652.19
48240.2
14.0852
61.215
542.882
46008.1
49.4641
1667.23
49919
2081.93
57099.6
176.913
229.422
123.237
52.265
1099.17
369.721
226.839
443.545
500.777
11.5161
129.991
52279
48367.1
173.029
49308.1
272.876
128.817
65363.7
11.6736
63.1642
62.024
20.2571
366.785
212.055
245.992
1326.75
55625.2
369.303
67.4577
6490.13
966.738
3888.97
202.981
552.151
57796.5
28.297
157.819
1178.81
55638.2
51589.5
62174.5
129.268
51.1691
57106.8
46.3515
54122.2
10.3217
21.055
58790
58661
58997.1
85.4213
812.417
181.728
14.0623
170.965
2697.43
484.877
46.1723
32739.6
988.524
9.70983
50147.4
62373.1
1722.55
262.43
19.0915
64364
36628
170.804
52707.7
12.195
16533.4
52834.3
769.644
5792.19
553.97
1272.1
156.147
52664
284.812
22.3467
348.967
570.368
51887.6
376.638
185.712
27.6543
151.745
40.6122
3920.33
37066.5
64999
254.329
51208.5
11.2476
923.506
3724.32
58614.7
44029.5
24.5013
1444.02
57056.4
44245.8
47968.6
2511.13
951.94
11.5356
34838.5
822.208
66.0702
257.946
546.917
661.526
56.7038
1336.93
66570.5
376.519
91.9769
89517.4
16755.2
373.982
513.138
925.073
481.344
257.338
1316.25
927.911
373.627
151.378
1334.05
40270.3
785.151
64981.5
52935.4
31738.9
4459.99
175.834
255.967
375.655
58579.9
1233.94
21.5529
78.0155
518.859
15.271
196.295
73.0135
56164.8
52440.9
1356.59
50754.8
38787.2
36.4515
351.558
9.70615
8.5881
1017.63
44433.6
221.817
2347.15
39840.6
27.6999
48216.6
1488.59
21.9316
66986.6
12.2103
375.472
2737.79
43989.9
39325.4
362.187
40067.8
432.346
49.0635
1158.22
18.5188
53886.4
8.87199
30749.1
1138.03
1307
1222.72
1038.97
51499.5
63487
61.7126
49.1697
3818.81
52.3873
57100.2
1061.37
10.337
131.472
127.926
59278.4
17.2406
1260.48
650.281
1160.39
55619.2
57694.8
664.388
53448.9
185.008
5359.67
154.188
826.791
337.183
58676.9
31158
146.441
1182.95
1234.12
11.172
66957.8
1207.08
50957.6
435.601
18.5704
60120.1
56821
49500.8
1502.6
53044
2474.29
1303.77
5109.04
66716.8
960.558
56281.4
1296.61
1255.22
12105.4
574.01
4263.2
1053.27
49472.6
1015.27
118988
643.188
57166.4
1117.54
27479.6
50.7914
117.486
915.45
59097.8
1168.45
817.617
729.432
282.102
93717.3
1270.42
229.525
1293.26
1166.58
946.045
748.053
1005.42
243.313
59000.7
14.3122
71.7405
6104.09
185.957
101671
1389.14
77343.8
493.475
14.8182
490.969
1233.76
1374.64
1921.81
49989.2
13.8847
107.424
41.1697
2558.57
80086.7
114.313
51155
355.442
127.777
1104.7
15284.5
2695.54
69.0512
199.519
54840.2
11.2508
294.535
238.322
47.1307
1016.05
18.516
22.1269
132.774
5993.3
64.5547
1172.66
1299.94
48976.4
208.412
273.583
20.8502
563.202
53517.1
1204.57
27968.8
119944
1351.9
163.114
292.378
48118.8
754.792
44277.8
53.1178
138.426
49527.3
1711.82
1247.22
1237.39
159.652
1231.28
773.282
33.9612
579.109
555.598
235.476
367.648
146.436
39.4999
170.657
1372.06
44367
246
247.77
5923.81
205.608
1204.77
11.6187
4818.1
163.6
247.991
3946.97
51652.7
56980.6
263.368
53462.9
278.944
2746.11
40526.1
49469.4
763.984
47126.3
3924.44
1214.17
117003
176.839
358.517
46.9331
74.9507
44325.2
1213.82
1375.63
679.03
43.6602
60019.8
579.292
72.9272
750.271
44577.2
46075.6
460.497
688.7
122.774
47258
55731.1
292.914
198.32
560.254
47.5152
35405.6
425.035
2332.38
247.63
977.436
53304.7
49710.2
59067.8
1596.74
217.737
1241.66
1199.48
60.0117
223.616
47942.6
222.711
340.611
190.469
289.301
970.678
1111.75
1204.86
361.703
36.3117
70550.3
45856.1
189.073
370.781
55819.4
175.855
33817.2
143.165
48587.6
212.506
1304.48
9.21181
560.715
39.9551
239.584
10.431
58678.3
206.864
156.858
63.0024
1326.2
553.026
1186.34
53581.2
130.824
1223.25
577.447
48347.3
2181.87
48.4375
174.883
1204.15
65408.9
43302.4
65.3714
438.994
65476.5
2495.51
50158
138.121
322.545
479.771
4533.09
29.2656
1441.4
11.5647
8.90095
92.1339
65093.2
44652.5
812.466
65042.5
441.526
128.839
1299.8
37450.6
35.3814
164.13
205.025
43.0293
54931.5
63051.3
564.146
250.474
18.3045
246.373
47.8814
58966.5
236.023
6317.71
64573.2
15.3998
1308.43
26271.9
146.812
27022.1
21.5332
1239.98
522.718
52233.1
273.302
90825.8
36853.1
292.911
50154.9
65.4115
426.836
53951.7
1072.27
54664.6
971.013
45019.6
52827.8
1957.67
11.7113
9.88242
1343.72
1105.43
107.818
49216.2
1302.77
628.266
5815.87
975.688
11.668
743.519
14.6045
13.094
25.3934
356.921
57558.3
515.514
65.3961
55109.9
53186.6
38.9207
255.733
1279.9
187.076
55204.7
532.627
465.009
230.796
55290.1
1760.95
53.566
19608.3
71.8847
35160.4
17.2834
189.577
19787.7
8.46957
404.221
158.22
297.469
101310
2561.75
59.9765
33635.8
55062.6
75.5109
55.0214
25333.1
387.961
58795.6
1259.21
53479.1
334.151
41106
730.317
1262.02
409.807
4964.22
290.961
46525.5
137.887
57750.1
508.395
29274.9
1542.83
817.632
73389.3
14.1717
1542.04
1208.32
78009.5
2112.33
36.5198
487.473
291.689
13.8829
1294.46
42364.2
216.483
14.5949
51871.6
503.645
55729.1
40.0881
54416.2
586.012
1155.58
341.809
86.2197
964.209
64295.3
109.645
44646.4
54439
177.418
1202.24
48775.6
188.868
59480.9
1261.45
792.867
75.8166
37081.8
1372
183.814
536.672
1135.34
42140.8
721.238
1297.65
54305.6
1133.48
77.2761
955.101
25662.3
173.151
2542.91
65.2648
37300.9
280.632
455.652
899.202
12863.1
12.5106
144.742
37426
778.321
51285.8
414.532
37.5872
49.5546
56683.8
172.631
54773.1
197.738
238.052
131.927
1340.41
138.055
42937.6
117619
562.547
998.059
579.129
987.929
958.75
57.3079
236.092
58367.2
5915.65
124.876
51092.7
59.9999
60348.8
1318.65
1571.72
54844.3
56138
51437
90543.9
15.8941
64244.6
7592.25
63.0223
8.89083
762.352
195.921
37181.2
105.254
1849.3
923.316
55682.3
1088.95
58850.5
178.131
13.2033
2236.91
186.65
1220.53
54642.1
739.46
1208.72
545.304
12.7313
48861.5
47823
1845.58
173.193
105.163
26300
15.3461
1065.06
490.055
586.325
39.3424
2301.44
9.11188
1230.54
749.607
66992
209.609
7635.76
57988.9
46799.8
54523.8
1167.93
40740.7
219.306
53989.9
11.175
1266.6
21.6096
532.718
1182.65
87883.7
37043
44566.3
12.6128
349.149
59177.7
1462.1
1459.53
160.379
471.751
55199
1255.63
8.40391
1450.95
964.1
54621.6
1131.58
54704
27115.9
27.534
80.8066
212.309
52169.2
45.6188
1382.38
110.859
207.366
57922
14.2362
130.181
45.5381
849.765
59.2638
46157.1
85.8309
178.398
490.615
122.66
65041.5
67.6395
121.327
49905.5
53.8149
52554.6
498.321
1186.78
133.089
268.179
1425.99
396.935
55742.3
1181.97
127.969
190.871
128.933
129.053
44616
14.6823
146.171
52818.4
43956.1
80.704
58749.6
364.782
261.669
54991.1
458.946
64579.1
50.5548
455.455
1212.18
960.671
92.1047
29643.9
560.659
1399.86
5199.24
1546.11
26.6902
1325.26
1204.79
12.3172
244.226
61.4403
82.1097
51283.1
1064.76
286.703
80.2296
321.67
1173.55
44963.4
64596.5
9.96709
52316.8
764.394
19.4828
125.466
58805.2
37274.3
122.591
41217
714.529
379.218
345.366
66.9512
279.868
148.02
1370.2
345.9
47.847
98.9932
54619.6
42213.6
77.7134
66.6528
4001.01
580.713
6141.68
60641.4
914.58
220.392
175.884
59988.7
51923.6
44856.8
236.039
33411.9
312.587
1168.62
408.397
698.296
48711
34.0436
55805.5
130.059
89.5702
11.7197
3005.64
15682.8
1209.66
56812.6
8.88021
1197.53
8639.45
6543.07
370.637
2123.32
99.1097
113.949
52092.8
124.736
1229.98
539.19
11303.1
1122.7
1398.19
950.805
45256
56962.4
231.343
614.278
301.697
206.396
1152.08
3463.73
212.101
145.291
35.4584
1302.98
104.509
455.721
11.7
14.829
57324.6
21.3432
504.205
50832.4
30.8934
422.904
7133.79
42718.1
483.97
103.107
102.677
323.283
313.973
3203.19
18867.8
1383.2
1038.56
57143.8
125.571
65.6763
16.8973
35.2847
65308.4
240.086
331.348
240.137
59311.3
45300.3
1191.66
1200.72
57254.2
91162.5
42.061
12.9426
437.264
1374.83
15.4571
36889.5
1144.09
30.9998
52800.1
567.708
1943.93
57296.7
60438.1
17.2592
9574.26
1185.16
61.0187
266.219
290.428
267.841
23.8595
14180.9
38726.8
1072.8
51138
242.012
1287.85
36325.8
67.5381
1091.19
723.858
41415.7
45330.2
454.556
7717.36
722.642
1262.04
748.219
1238.08
1196.03
1115.5
232.52
45601.7
681.88
241.711
48.7964
44073.7
46536.6
16.8382
25.0265
47682.2
6541.3
16.5123
50641.4
184.863
39380.7
218.727
610.376
446.828
244.604
110.288
23.9184
116924
428.772
53356
169.363
742.989
53477.7
226.579
40.4263
1049.8
1301.3
52024.5
1249.38
52897.6
9.21147
216.916
504.225
249.577
72.4692
124.587
105.284
20118.7
147.181
11.8692
172.225
1364.89
230.968
30756.9
51983.8
387.865
55292.5
19035.3
59200.7
714.995
1300.27
158.771
41699.6
235.987
11.2379
104.315
207.132
71.602
11.2912
327.536
176.899
613.663
765.233
58505.2
1096.64
11.9279
333.829
34229.6
560.942
1326.02
89103.9
1302.32
490.291
48.5597
1325.14
1400.31
81.9836
83.9758
83.7293
789.99
53551.8
783.875
39559.8
7871.34
1024.43
237.511
150.202
10.8793
15.1704
284.123
55860.4
16.8255
1159.26
12.6267
355.997
54732.5
12195.9
53572.3
498.82
211.052
1107.8
32229.9
223.622
50941.5
1361.48
154.562
42.0831
114.119
1311.14
675.257
189.116
1400.37
1243.42
230.928
1220.32
2028.86
43717.2
115.437
54.5515
372.511
108.513
81.8856
2042.65
96.7728
81.343
181.77
117450
1001.41
718.488
494.412
43752.7
51993.1
54441
286.697
1280.17
1017.22
48171.8
87.5062
205.022
35.3224
425.346
13.3427
53.2913
611.126
27.2991
1189.48
15.3988
54154.6
4953.12
679.232
249.514
135.647
568.184
211.884
58103.6
291.258
3652.65
138.913
55851.8
56353
26.8867
8.9719
184.74
13.9864
63.4759
569.761
812.496
51054.6
1198.43
56872.1
1291.78
263.094
83.3998
593.47
327.834
92047.7
55763.9
1245.04
2406.47
946.012
1211.75
44148.9
129.543
101.679
294.927
22.8797
88039
273.269
58052.9
75.4485
51.629
16.9946
536.963
176.467
815
1172.98
43897.8
55825.2
11.5632
14.1804
412.79
549.161
85.6829
5236.23
1067.86
3495.95
425.899
2877.53
54121.2
3945.5
154.252
44.6534
907.704
1195.49
2376.03
121.729
753.309
4338.13
382.078
6526.73
694.961
15.2281
561.639
47091.9
32815.8
46125.8
10.1509
53566.6
33805.5
1373.52
580.201
30.8689
1142.71
12.7091
54358.9
186.847
51.3591
108.643
618.202
233.155
52779.5
351.848
2405.44
56822.9
725.183
553.589
1200.38
466.815
685.395
708.752
131.415
210.547
78.0563
1136.17
98.0247
13.1588
1224.84
64.729
46983.4
14.1769
586.237
172.017
1195.97
509.304
87.3631
12.0985
10.9549
205.322
48717.4
1271.83
123.87
63395.7
131.489
327.981
154.97
998.86
29907.9
1184.12
59356.9
63767.5
126.214
11.477
93061.6
114.673
282.312
1384.91
55772.8
195.587
1155.26
614.997
574.808
174.317
1259.39
813.154
60483.5
43150.1
135.15
32380.7
38206.5
16.2301
732.885
38995.6
54136.8
55778
1385.15
100.864
64503.8
863.647
1122.2
133.807
35219.3
51399.7
63.5672
81.3762
100.416
125.679
35943.7
112.236
203.878
549.149
56478.7
2116.79
176.936
56348.6
59449.6
56914.6
62828.3
15.0409
712.558
46830.2
50540.4
291.063
889.19
89.7769
210.808
37688.9
1263.67
2205.71
44964.7
86.594
57869.9
60517.6
57170
118088
64.4836
113.984
516.594
308.816
13652.6
10108.5
18.8736
10.2493
1193.88
405.381
212.581
1852.3
169.888
56341.1
469.992
174.352
378.14
9.00755
1043.06
53662.4
74.2915
59.4391
66074.1
57230.1
1171.38
151.441
214.777
1051.66
204.553
51.8561
624.311
1195.72
53437.4
81091.2
58158.3
638.139
1350.7
1255.96
68641.6
605.705
1031.74
389.375
42227.9
324.959
54724.1
41945.1
1385.28
1076.13
82.3968
10.0062
48496.2
418.763
252.069
116102
123.095
590.201
1132.05
58888.6
263.316
281.505
42358.3
425.744
5096.04
63.0808
45785
828.153
57473.7
464.307
449.815
1329.75
445.429
34970.5
1432.85
157.291
1104.51
1623.58
411.416
54778.8
1664.7
35578.8
518.868
1191.69
165.311
461.638
3506.41
22.7214
1116.43
64665.7
34219.4
2209.56
55841.7
55.2396
2326.87
118.296
15928.5
50.777
1217.42
56375.2
56283.4
99.2111
846.212
55700.5
14.2124
542.42
282.88
266.975
716.352
15.6169
84.2761
436.851
48544.2
895.332
1713.88
54700.4
1469.83
25.3448
902.134
170.608
604.754
82515
1067.47
57973.5
64833.5
506.526
150.634
303.545
56932.1
45.5418
177.29
826.169
412.75
55839.6
16.776
743.206
1317.16
58271.9
55731.6
1188.77
53229.8
18.8444
150.675
56413.6
39453.8
511.063
64603.8
16.2644
13.1034
53.979
4114.2
786.282
59.1941
40637.4
164.956
66296.7
53.3243
46.9927
212.973
16.7804
91289.1
90864.8
159.157
42506.9
227.621
208.785
56232.2
248.151
2274.8
316.175
540.014
74.3095
484.64
13.0468
44952
205.564
15.5712
1380.29
289.812
118.633
1429.67
11.0543
54800.9
125.522
67794.1
1079.16
317.434
54013.7
55787.1
47768.8
549.71
49122.9
46345.8
419.419
711.974
116048
54627.8
14.4174
155.666
48897.7
50418.1
270.386
55904.8
50799
58533.1
55387.5
28.4696
9.87126
1225.74
359.307
1773.1
2958.09
47924.8
1193.92
50093.3
31.642
18.6832
468.9
40311.4
53192
744.476
134.416
51596.2
160.07
1217.35
1029.23
55.7572
66532
381.388
55109.4
3624.01
928.921
26639.1
995.921
1294.35
247.942
111741
371.755
18952
203.455
52.0485
1319.93
58287.4
57595.9
14.753
225.117
35624.2
535.907
1131.47
54855.4
27911.2
29302.2
731.176
8.40433
45999.8
10390.8
55092.6
308.883
59138.3
34455.6
119.1
11.1522
142.806
2139.76
56018.2
714.783
32100.8
1105.4
202.215
770.586
4071.62
164.538
1218.36
227.173
764.597
1215.61
48874.6
1288.16
972.893
54665.5
178.987
437.404
43082.8
1367.15
779.285
117.121
215.705
395.308
67.8964
29.4165
499.583
61900.7
1374.19
15.3979
729.573
133.335
774.73
317.599
28343.6
5691.87
346.812
51.1462
8.72012
61060.8
1178.93
164.649
215.956
42749.1
74.1541
54767.5
55658.2
9.113
53702.5
58088.6
52.5014
109.041
53250.8
728.767
172.429
8.96428
8.39499
11.3427
8.73799
10.2279
13.7126
7.9684
7.82178
7.40953
355.404
2579.21
112.072
16.0092
37399
53.4246
114962
101.457
15.763
243.712
12.4218
47236
61.7379
605.163
71.9199
476.22
972.085
29.6049
54093.2
292.68
303.52
1135.6
767.068
6483
304.114
362.431
15.7543
1145.39
242.267
46912.5
850.104
2075.8
56585.6
170.321
211.94
148.362
14.8004
42.8593
152.4
394.875
51.7073
51.4969
54616.9
1237.1
79078.1
337.209
31318.7
57345.9
208.264
71932.6
1480.11
241.532
15.5234
3279.31
49.8377
47236.5
56413.9
208.581
212.486
204.416
104.674
58501.8
40159.5
1203.43
217.689
41564.8
345.98
16.8588
48895.1
91.463
1295.32
467.013
1196.41
1418.98
48555.1
261.822
1066.48
550.842
234.123
28272.8
699.878
54421.5
61623.7
48699.7
52114
328.488
13.7376
306.975
54313.1
1291.49
1308.69
210.859
159.109
6351.1
13.3203
24.343
287.798
36991.3
4355.11
546.425
42984.6
110545
363.815
2902.47
53432.8
57211.6
43596.6
19.6704
58603.6
1203.16
1148.41
37513.6
56701
74.0484
59.7679
129.48
9.9954
290.438
513.912
57.5255
83.7026
1255.16
50620.5
1301.79
1415.43
3840.09
82.1161
1314.31
105.014
773.64
55947.2
1013.09
1302.5
403.881
1374.03
581.925
866.434
1329.39
47272
87.545
348.674
82.8139
54.0309
2113.86
2771.03
48866.5
40214.7
99227.2
158.874
55061.2
128.141
896.797
72.6949
68.296
190.304
84.1972
27930.2
830.162
32953
319.578
580.73
410.205
1022.9
55438.8
1205.61
786.176
43.9991
1217.74
8948.75
1186.99
125.011
1143.66
731.361
374.864
1370.16
56612.3
477.693
209.342
55784.8
56926.6
211.822
517.516
45211.4
2909.97
3265.13
55144
44151.5
22288.6
15.0247
626.059
11.1349
51346.2
47.6384
958.602
848.676
1272.08
712.41
14922.4
344.738
998.772
56277.3
713.396
43395.2
517.216
43827.2
42596.7
721.56
146.858
87.6573
1642.82
37.9866
48.7398
147.237
87.3636
899.972
3336.9
64.5923
76.9528
1319.72
461.479
13.8669
1410.32
558.428
253.297
33603.1
53564.6
505.066
1302.47
25129.2
56064.7
1060.76
34117.9
381.312
337.084
43606.2
56593.3
86250.6
79.8118
3298.87
50539.2
867.455
39616.4
32908.5
586.483
56.6119
76.1261
127.793
1217.53
383.365
15.0378
43.7453
58366.4
57353.5
366.232
54170
766.066
167.541
5102.64
1372.47
599.203
56398.2
477.001
1082.87
112.615
80.3247
66047.2
585.573
52698.2
55850.1
163.98
58.0617
37.8836
402.161
45324.6
113.502
401.841
95708.6
11.9035
50404.2
170.537
48342
863.079
8378.03
2851.61
215.886
107.08
309.822
1240.31
56108.5
1160.33
107.755
1518.28
262.385
7213.22
219.433
519.983
59.4653
24.4809
56671.1
47592.5
426.588
401.465
275.983
256.982
468.921
945.995
39912.6
20.4362
763.473
35363.6
381.583
65530.3
364.479
341.881
1625.45
57251.8
630.442
72.3201
96.5309
11.1554
555.771
227.593
292.195
460.138
94.3312
773.144
55.7081
101.063
602.983
1249.21
109.177
180.124
1143.79
20.6951
20.5779
358.296
173.215
70.0139
55739.3
140.945
152.29
57340.9
929.197
1175.91
54233.4
58340.5
554.504
1254.15
21006.6
57184.5
1350.48
55737.1
72410.9
578.56
60559.9
10.5553
190.556
12.4657
32.5895
405.678
6762.48
1163.46
341.364
477.052
58378.6
440.17
10.3127
239.288
288.148
112.119
15.1419
372.437
172.931
21.0027
1641.24
28.3689
53276.2
53819.3
2302.44
15.6866
48891.8
49129.5
33205
55465.6
252.822
603.644
1358.95
4942.39
54.2833
1507.47
1197.05
16.0115
209.601
207.911
43.1472
245.083
51.2602
290.045
55943.2
146.098
130.742
75.5907
37594.6
1060.01
270.564
61920.5
186.388
215.716
40.457
96.0423
454.288
5756.92
263.178
56428.9
65075.5
56016.3
16.8999
13207.4
13.583
12.4455
656.891
1459.54
203.536
310.817
1107.48
204.456
54898.3
36.636
909.562
17.4993
66176.7
73.2166
1002.07
15.2893
7198.92
225.365
101.826
56535.3
63611
15.7594
56234.5
24.1116
97.4855
102.965
301.762
806.726
121.19
220.515
55800.2
80.0861
1172.69
5724.9
733.734
39.3511
156.73
4680.88
235.957
54292.4
496.377
1345.65
52330.8
102.305
461.397
255.267
786.059
52332.8
51976.8
16.2202
34541.9
15.9967
63.3107
55881.9
715.173
1024.22
1463.63
1181.95
191.723
637.056
48146.2
10796.9
65.4914
608.891
268.132
263.6
11759.3
170.476
84821.9
1298.3
1146.73
536.58
84.0839
15.5739
179.936
12.9012
1193.55
44135.8
151.438
471.77
60619
57.7455
44007.2
57723.5
51345.1
436.731
242.512
337.021
1224.7
38296.2
1434.49
69.6548
235.861
552.782
22613.3
330.469
479.383
167.465
56610.3
45526.8
1138.71
387.81
217.754
43.5729
14.7231
7724.31
18.8194
12.6243
88.5014
465.3
188.988
774.041
6994.88
869.396
248.106
495.126
843.226
20.8857
393.625
3093.05
1150.97
112.632
56.4855
4832.66
1719.39
19.6707
1845.48
68019.2
44475.4
648.495
37710.3
55724.2
320.232
9.24991
44548.1
716.008
58.3546
14.0536
44.7935
52434.9
43348.3
45636.1
466.68
110.897
68.8479
172.644
244.203
20.5234
1916.79
1929.51
29009
52910.3
1013.14
81.1096
12.3162
47496.7
178.546
511.387
15.4614
43.3188
627.965
27524.4
32486.2
493.282
605.139
12533.5
1169.97
457.377
55712.2
14.7418
736.968
45031.8
58436.6
1402.68
44749.6
1335.38
42502.6
16.323
17.178
74.7135
140.7
84.2004
56915.2
172.712
11.7482
172.272
831.545
108.794
11.0735
1165.11
271.679
450.445
109.599
52330.3
872.476
78.6941
101.346
1186.22
12.0561
52636.8
48.0454
528.961
15.4387
411.416
8343.97
9.56365
50790.7
47681.5
57298.3
13.6259
164.89
94.3149
1229.96
334.35
170.947
392.305
57266
11.1414
1067.36
494.892
931.692
275.873
255.038
42185.5
156.819
89.8325
18.1137
433.034
116.786
360.653
105.539
15.8875
241.099
297.707
1347.28
161.791
57702.6
1334.51
55.4305
46.3618
252.131
40585.3
29718.8
54133
1141.22
22332.8
195.44
469.84
39161.1
629.941
55817.5
1149.31
130.041
394.713
171.001
53638.8
162.975
216.596
58218.3
56454
1200.23
56104.9
45.7052
54127.6
1155.33
22.5956
679.443
1958.85
217.259
21103.4
63962
111.568
2677.81
242.583
57532
364.004
108.08
12491.1
9183.68
34383
48.2492
58558.1
21.9261
590.73
132.945
12.3531
40.4083
40.5877
2157.84
292.853
934.878
59204.9
723.394
51077.5
31528
28428.6
1474.62
16691.5
1571.74
557.492
11.9303
68.3179
123.155
45676.7
245.393
16.8357
20229.9
58019.7
1554.16
271.601
1523.04
143.208
116.793
359.033
51.0229
307.303
102.881
57755.2
1110.86
484.999
250.159
19.1128
151.352
13.7932
657.521
53335.7
8.24771
171
1165.79
47430.3
171.512
8.65166
31.2003
920.607
1346.49
359.018
756.643
183.563
275.012
50.818
150.775
3363.93
1352.49
500.588
1176.26
334.157
54899.6
1056.05
251.12
1553.69
11527.9
56095.9
1174.03
306.954
345.991
24.3059
158.484
92411.7
72.4034
247.736
50647.6
169.036
84.1935
75.8483
27059.4
54820.7
59527.5
54243.7
78180.6
114.207
38912.2
503.654
439.503
2454.02
23.9575
2600.35
8505.45
1830.15
52659.6
1217.91
37.1705
1901.41
271.008
604.699
435.873
55588.8
426.742
311.691
36.0779
789.614
1102.03
246.532
53418.9
644.88
37234.1
402.859
13.2837
66422.8
19.3511
53185.9
80.5668
104.832
60.6803
164.267
417.389
36.69
496.512
80.2597
1172.45
59.7776
63.3898
253.985
209.873
9.74298
53502.4
139.516
237.204
51899.4
15.0323
89.2436
183.761
318.277
45949.7
2055.26
407.829
1351.17
56986.1
8087.19
73.0309
279.421
1392.16
1554.82
18.1585
63.6007
54.226
341.307
243.753
4184.06
36.0167
90.2328
236.267
132.249
47173.5
257.612
31461.6
320.328
55876.1
15.9559
1124.01
34340.1
1370.66
14.8065
45780.7
51511.9
144.657
25122.4
1187.25
1220.78
56395.8
276.879
5609.79
38.9248
757.045
38.6967
8.97944
130.271
1248.01
137.13
67.5945
56328.4
52620.8
919.652
519.96
31645.5
159.957
116811
16.6499
662.59
459.315
43.7541
57933.3
65.0746
6765.73
160.161
291.116
636.915
1166.03
46.6434
207.83
14.7629
1279.81
12.1966
2067.23
57475
56220.5
82.5568
59247.3
163.864
1354.28
249.382
12.5161
164.831
1583.78
289.256
159.891
95.0387
184.663
49118.1
55746.7
679.694
18.3987
53457.7
197.616
1246.36
26.2366
609.046
260.467
10.2625
16.0627
14.9107
58669.6
6074.12
740.789
441.247
70633.5
52.4875
1286.77
268.791
187.051
1279.18
76005.4
174.676
10.2322
47935.3
1667.52
111806
18.1037
43230.6
41947.3
1207.77
350.771
1201.75
48733.6
113.919
2512.59
57283.1
90.5349
58698.7
56137
157.173
57405
159.777
51565.4
409.341
732.646
153.147
221.6
1082.19
14163.4
42352
902.911
72.2877
59355.3
228.197
66.6447
191.461
83.5142
57796.5
169.069
26478.5
47425.2
475.844
518.828
364.723
1520.58
11.9192
54323.8
6516.87
220.897
54350.6
1337.31
1304.25
21050.6
177.113
252.646
1287.5
44652
53468.3
328.708
56960.4
116.761
504.489
2007.37
36967.4
364.633
377.99
1244.74
1342.61
246.321
2449.93
200.221
33.4829
485.658
1422.58
53927.2
50.4257
57280.9
250.609
62.5374
415.601
8.65798
1200.84
140.503
392.294
6859.82
170.569
234.665
40096.4
64.3727
71.7729
37556.8
350.095
391.41
1145.55
1225.73
57900.1
64880.6
282.518
26217.1
1674.67
626.734
37.643
337.379
1202.41
1352.55
948.335
3845.56
39.7562
101.14
12.3651
10333.3
15.4153
33371.1
178.501
539.348
59.9947
48602.1
1373.9
182.089
102.367
34.655
211.315
1156.47
13.3886
42202.8
135.044
738.637
291.025
18.5905
22315.2
416.911
56647.5
43973.9
762.004
15.7422
44.1217
638.763
10.9831
363.23
50963.9
1141.72
314.769
1436.2
54738.3
33.4357
11.7878
58918.7
375.925
15.5086
3546.27
190.561
455.047
14.5501
1209.53
47111.2
1318.25
56274.7
64.4783
57218.3
892.84
1199.13
52419.1
483.947
57381.2
1795.15
2150.42
55.8934
28.1734
168.641
76.1287
1357.93
10292.4
67750.4
54450.9
675.86
13003.5
11.5308
46834
162.907
469.511
721.639
1637.97
1242.96
940.037
135.824
455.641
234.052
8.87616
46.9382
235.542
145.72
48.9783
1362.39
2666.77
628.515
897.267
40041.7
261.512
507.88
243.813
923.733
52033.6
5964.62
48.5854
14.9447
1270.22
501.679
150.041
53504
1301.99
426.677
271.119
467.964
60927
55760.2
167.389
418.18
423.324
248.333
495.216
47.8733
24.3035
57652.9
27.0356
803.005
33655.4
764.501
2345.82
54785.9
321.934
46036.6
1427.46
86.2157
28902.6
3250.95
510.528
55531.7
27.9497
57110.1
56762.4
51080.2
55.3907
65186
1132.67
765.886
442.758
128.17
45.1966
88008.5
73280.9
452.927
73.8253
222.774
522.261
56697.7
3794.71
1088.45
59457.2
41867.9
14.6432
1455.35
56007.2
36302.9
271.927
56960.9
1398.33
421.772
197.439
53590.8
573.59
641.385
58704
169.151
1061.27
56010.2
7391.69
645.451
58229.4
38.6192
52900.5
19.5761
1432.36
1901.55
1248.97
364.79
100.221
349.751
271.566
808.069
260.297
30754.8
672.401
367.073
43959.3
85.8277
818.641
61.9309
1152.63
3068.93
146.545
22.9371
1328.39
1373.2
50.0237
743.858
266.518
806.361
685.821
8.99829
50.3849
46.512
58972.6
1119.04
1857.7
461.037
30911.4
17499.2
63850.9
692.473
1187.92
454.289
660.845
1247.55
1322.16
259.083
144.617
42651.9
22598.9
111.9
1945.33
107.204
55946
26155.4
14.4265
211.025
3645.2
1307.82
63039.7
602.711
303.894
102.291
183.086
61.0606
20649
99.5544
1253.18
39352.8
585.306
1228.08
34457.8
1327.17
225.503
1224.87
756.778
48761.8
68188
319.114
40123.8
69191.7
76813.8
22539.6
48438.2
172.956
26614.7
234.238
1096.34
11.1553
216.11
1618.39
1264.31
531.144
179.919
15253.8
316.866
827.428
41.8373
35929
14842.5
251.506
57086
97.9476
52563.6
65369.8
85598.7
71.5141
1453.53
7376.32
128.853
138.616
465.84
56302.2
1175.62
54141.6
47257.7
7.53
8.60041
9.66882
9.22719
8.78832
14.6493
8.04717
11.2731
7.73324
396.446
29.884
24421
243.939
61.6915
22125.7
460.283
831.48
421.87
1398.05
2497.84
33506.5
737.327
1193.63
24.6696
1853.01
56.2881
1414
1275.34
1360.54
1336.47
176.902
1265.31
45954.5
760.183
1142.2
1359.12
2797.43
153.602
1753.98
434.082
9.30314
110.404
25443.8
58759.1
25.5471
292.858
47.7394
78.1225
71.6735
63.4982
50.2283
36006.7
45580.7
29055.6
44196.3
1295.3
32110.6
237.722
13.6736
471.073
604.033
638.855
8.28729
35.9093
954.469
31642.1
15.7725
400.222
11777.8
72.7303
1978.77
146.214
552.251
14.2046
1823.09
385.966
102.744
53026.6
185.411
1159.02
1231.82
14.2853
69.7548
280.398
36719.1
58469.1
54158.6
253.855
1143.91
887.448
242.142
352.277
65.4151
1019.45
63833.4
56246.9
344.35
225.472
45403.6
36842.6
13.0119
58971.8
43034.8
224.918
848.015
56670.7
45681.2
1045.17
414.192
1573.55
41684
2530.46
622.246
1398.3
1179.89
841.974
54178.7
4239.31
48.1879
53772.7
363.486
1239.53
161.938
4959.34
143.322
8.60502
617.292
983.499
1442.69
353.161
56306.8
15.7089
48742.3
48614.2
13.4285
3099.45
46128.6
39622.8
52527.5
2215.53
81.9711
502.994
512.278
27.5667
222.884
1122.75
3696.82
1115.61
55270.7
26147.6
318.615
155.397
633.075
43881.1
1050.85
17.3312
73.1318
446.484
2286.53
41501
505.816
677.513
374.902
1103.95
20848.9
272.577
13.6325
32.8715
17.6202
55708.7
48641.6
499.132
3086.58
50055.9
2028.31
50736.4
387.47
30858.6
332.193
53424.2
1935.02
1097.11
63440.5
18267.3
61474.1
251.135
475.023
497.877
77.0898
61.4589
290.716
762.868
92.2493
591.881
1077.51
1369
764.817
7281.81
43454.6
57854.9
1176.37
56171.4
60376.9
57299.5
446.411
18.7015
4792.78
51972
327.579
314.246
73.8876
340.31
119.349
188.667
368.498
41407.6
50939.3
29558.1
3484.3
356.005
162.571
11.1612
56808.2
18894.5
77.6242
173.448
42658.2
364.658
5280.43
49276.7
31.555
185.227
183.645
136.64
601.932
113.098
2621.31
99.4852
57262.9
674.91
1131
57462
1219.1
42254.6
60144.6
61693.9
1178.91
56722.9
164.406
13040.4
50709.6
35.7201
1117.1
49266.1
15304.6
18644
1330.07
11208
231.69
1312.33
129.726
141.188
270.968
11.9144
938.168
255.012
72.0117
224.599
1559.09
246.576
2874.43
1580.74
343.856
74.8921
38.6323
54.6761
194.47
18.3384
37.8235
290.876
97.2422
1393.79
5261.31
560.815
974.543
16542.5
257.447
521.366
57506.1
56877.4
1629.39
41.0405
910.377
1097.92
27792.4
63.4278
886.379
85.6403
1186.47
46.8857
1218.94
1257.37
117.128
1226.31
1197.62
384.425
11.007
64280.6
34512.7
221.826
1716.1
700.341
1260.55
56072.2
654.009
45507.6
1386.38
2179.36
213.116
248.785
48.3352
70116
1286.94
43151.9
1105.33
453.992
50775.4
1175.16
18.8013
57240.2
423.837
49683.6
157.155
68.3798
1121.49
232.467
51019.1
109.157
46.8354
23952.8
2762.84
1267.67
16772.8
2014.5
1116.18
247.379
680.521
257.55
508.772
617.794
35644
32108.3
67113.1
56210.1
63.9863
124.588
257.879
8004.14
14.3983
17883.1
11.3397
77536.5
1080.08
85.8917
47.0848
721.576
151.252
2442.55
41894.2
13373.4
433.4
29941.2
54972.6
247.435
1214.36
1185.79
388.425
13.886
1308.04
74.1867
424.341
52221.6
48406.4
1176.61
14388
96239.8
1321.24
235.911
11.8078
497.489
6619.79
28000.7
220.652
524.424
283.263
412.31
1226.4
56666.3
274.142
49847
1542.87
499.455
803.79
72.3404
222.93
4890.12
81.1144
1427.44
49463.7
1376.89
451.527
1151.74
34033.4
79.4132
71.2959
962.842
816.174
177.478
1905.88
2296.02
92.895
47644.9
436.434
96802.2
74.3355
52770.3
6858.09
1312.08
1026.35
280.732
49447.2
1199.24
45837.7
12.9166
595.377
878.96
506.406
66.2044
1208.6
563.58
273.652
51156.6
45994.4
471.051
51.3301
312.615
126.665
580.295
48034.9
17.6179
1027.59
49007.9
1182.36
1362.63
23202.5
49358.5
105.024
56288.3
972.367
57615
1535.86
58.0395
151.842
1234.66
43054
226.022
1138.99
1213.78
1806.17
982.524
426.515
29412.4
54659.5
290.865
227.373
463.451
586.544
29490.2
5142.8
45957.3
168.482
72.9405
1177.51
21371.9
3807.68
164.792
116576
74.8868
1249.41
59313.8
165.698
9321.39
21299.9
868.139
11.6439
8.81164
8.5827
7.87672
14.1964
8.5161
12.2602
7.40809
10.2379
8.96573
11.1088
9.85977
7.75514
9.587
5679.88
1221.79
1372.18
557.423
621.591
171.858
162.75
18.5581
49473.8
286.821
100191
66218.2
2581.05
46740.1
254.55
85.813
1182.11
5992.08
1228.68
39323.8
24966.8
40.4054
71695.5
1130.51
145.747
35743.6
1078.82
44487.7
70.641