/*--------------------------------*- C++ -*----------------------------------*\
  =========                 |
  \\      /  F ield         | OpenFOAM: The Open Source CFD Toolbox
   \\    /   O peration     | Website:  https://openfoam.org
    \\  /    A nd           | Version:  8
     \\/     M anipulation  |
\*---------------------------------------------------------------------------*/
FoamFile
{
    version     2.0;
    format      ascii;
    class       volScalarField;
    location    "8e-05";
    object      rho;
}
// * * * * * * * * * * * * * * * * * * * * * * * * * * * * * * * * * * * * * //

dimensions      [1 -3 0 0 0 0 0];

internalField   nonuniform List<scalar> 
23640
(
0.000148148
0.000538007
1.43504e-05
0.0481464
0.000524007
0.00107027
0.000293124
0.000703114
0.00115413
0.00181157
0.0464301
0.000505735
0.000393454
0.000472995
0.00145049
0.000987752
7.54837e-05
0.0328325
0.0407056
0.00111399
0.0450575
1.34909e-05
0.0447943
0.0443959
0.000685948
0.000406864
0.00622448
0.00150363
5.25895e-05
0.00056139
0.000327651
0.0719845
0.0451319
0.000673326
0.00118469
0.00148301
7.89758e-05
0.00019298
2.94361e-05
0.047753
0.000567268
0.00117438
0.000479963
2.75106e-05
0.0484828
0.00783536
0.00014482
0.000500662
0.00179317
0.000592198
0.0662383
0.0339358
0.00136282
0.000103616
0.0480777
0.00119437
0.00151651
0.000603699
0.000195074
0.050462
0.000317696
0.00823421
0.0484692
0.0351565
0.000244845
0.0349974
0.000799064
0.000641817
0.0287021
0.000496339
0.0486181
0.00066659
0.0410636
8.16592e-05
0.000927309
0.0712968
0.00128005
0.000379711
0.0409935
0.0482768
0.00919781
0.00250007
0.000328503
0.000329959
0.000228737
0.00155333
0.0337796
0.046839
0.0414915
0.00155835
0.000232085
0.000614116
0.0017283
0.0411772
0.0334154
0.000564495
0.0357897
0.00130486
0.000937805
0.00161082
0.00174963
0.000104006
0.044178
0.000171047
0.00110778
0.000184034
0.0491374
0.000138252
0.000545951
0.00095311
0.000289866
0.0411554
0.000767715
0.00059234
0.00481316
9.64674e-05
0.00143246
0.000270329
0.000134505
0.000585578
0.044528
0.0516883
0.00121581
0.056322
0.00280784
0.0465497
0.0687763
0.00308819
0.00108737
0.000579292
0.00216655
0.00165564
0.000411714
0.00403713
0.00018014
0.0467504
0.0461395
0.000661674
0.0462488
0.037053
0.00096863
0.00148653
0.040575
0.0464472
0.0401712
0.000809166
0.0471645
0.0477699
0.000241642
0.0306975
0.000577854
0.00104628
0.00032331
0.0481323
0.00170852
0.000139705
0.000294104
0.000697839
0.000778997
0.00617575
0.00155821
0.00136085
0.00140849
0.000727146
7.19672e-05
6.61721e-05
0.0490736
0.00555936
0.0491019
0.00164708
0.000499914
0.00474361
0.000914541
0.000525298
0.0488306
0.0489286
0.000582954
0.00487734
0.048322
0.000575742
0.0484114
0.00134663
0.000658943
0.00118962
5.73492e-05
0.0195444
0.00276638
0.0017551
0.0510715
0.00130123
0.00143644
0.046727
0.0509674
0.000317469
7.10672e-05
0.0474481
0.00114241
0.00139536
0.00169139
0.00434309
0.0436568
2.35204e-05
0.000201475
0.00118736
0.0420973
0.000192478
0.00185627
0.0449083
0.00330711
0.0490576
0.000496648
0.000615678
0.000313583
0.00020098
0.00112976
0.00088132
0.000597407
0.00106698
0.000754634
2.26293e-05
0.000333926
0.0464364
0.0437536
0.000512625
0.0443784
0.000733953
0.000407782
0.052897
2.22919e-05
0.000232824
0.000163067
6.85755e-05
0.000916528
0.00057954
0.000677159
0.00248508
0.0485884
0.000882049
0.000243128
0.00868811
0.00187789
0.0049175
0.000574163
0.00119573
0.0481145
9.08057e-05
0.00031277
0.00125023
0.0480904
0.0459435
0.0505613
0.000407527
0.000142984
0.0488545
0.000182995
0.0477216
1.18579e-05
7.21218e-05
0.0490403
0.049059
0.0483508
0.000284202
0.00165501
0.000535768
4.18918e-05
0.000484574
0.00452422
0.000918208
0.000182873
0.0323721
0.00171608
3.3863e-05
0.0445844
0.0507523
0.00292463
0.000711391
5.77814e-05
0.0521021
0.0352781
0.000510414
0.0467426
3.19145e-05
0.0189206
0.0467586
0.00117393
0.00822708
0.000856906
0.0013839
0.000449917
0.0466415
0.000717894
6.87241e-05
0.000847695
0.000779599
0.046168
0.000826962
0.000534452
8.70108e-05
0.000460899
9.96366e-05
0.00582418
0.0356198
0.0526072
0.000663785
0.0457601
3.95719e-05
0.00185452
0.00574856
0.0482319
0.0407362
7.95009e-05
0.00258533
0.0488336
0.0408525
0.0434789
0.00426982
0.00172411
1.11248e-05
0.0339477
0.00104517
0.000144356
0.000702223
0.00123283
0.00147561
0.000173489
0.00238075
0.0539852
0.0008328
0.000177454
0.0723676
0.0190774
0.00072377
0.00120907
0.00193347
0.00107221
0.000668775
0.00144424
0.00169659
0.000802471
0.000461139
0.00145117
0.0379388
0.00167582
0.0525936
0.0469457
0.0315171
0.00670232
0.000518527
0.000695322
0.000937595
0.0490388
0.00220439
7.44314e-05
0.000267759
0.0011835
5.24662e-05
0.000374792
0.00024405
0.0485312
0.0465472
0.0026131
0.0454301
0.0368937
8.9707e-05
0.000851665
2.82304e-05
3.00073e-05
0.00171687
0.0409663
0.000562512
0.00370803
0.0368777
8.77481e-05
0.043653
0.00279706
7.53978e-05
0.0542461
1.62209e-05
0.000832537
0.00457663
0.0407004
0.0364609
0.000863836
0.037829
0.000964648
0.000156585
0.00156026
6.02687e-05
0.0475851
3.03891e-05
0.0308587
0.00125736
0.00132198
0.00139095
0.00185034
0.0459375
0.0513987
0.000195145
0.000138524
0.00587346
8.55156e-05
0.0491478
0.00144962
3.62228e-05
0.000398363
0.000404597
0.0489112
5.55061e-05
0.0015083
0.000802713
0.00135931
0.0481037
0.0489203
0.00140079
0.0471897
0.000535291
0.00773333
0.000450078
0.00156041
0.000865234
0.0489988
0.0311597
0.000448762
0.00133099
0.00197118
3.95829e-05
0.0541831
0.00124217
0.0455894
0.000601369
5.42518e-05
0.0489149
0.0489367
0.0446285
0.00284349
0.0470157
0.00390853
0.00140864
0.00712343
0.0540499
0.00199133
0.0486265
0.00135252
0.00181629
0.0149025
0.00081742
0.00643868
0.00170237
0.044506
0.00172134
0.0961768
0.000800783
0.0488343
0.00128729
0.0282619
0.000160998
0.000367017
0.00184862
0.0492218
0.00152614
0.00155807
0.00116403
0.000754038
0.0757403
0.00145386
0.000583007
0.00150391
0.00118021
0.00173408
0.00145072
0.00206021
0.000629067
0.0483255
2.30879e-05
0.000124075
0.00856114
0.000513357
0.0821866
0.00251407
0.0625483
0.000816372
4.3158e-05
0.0011694
0.00181937
0.00149235
0.0030518
0.0449705
2.58909e-05
0.000342452
0.000126623
0.00431166
0.0647413
0.000352968
0.0455843
0.000813461
0.000404927
0.00174459
0.0176219
0.00402311
0.000223682
0.00054944
0.0478698
3.96504e-05
0.000742333
0.000630155
0.000185524
0.00184422
6.27187e-05
6.81858e-05
0.000400159
0.00838083
0.00014229
0.00141211
0.0015028
0.0442413
0.00059389
0.000734986
6.79692e-05
0.00120375
0.0471843
0.00136324
0.0286528
0.0969399
0.00139909
0.000464331
0.000774554
0.0436556
0.00150919
0.040918
0.000202436
0.000431183
0.0445666
0.0030003
0.00130374
0.00126932
0.000462212
0.00138854
0.00158452
0.000107956
0.00126008
0.000659672
0.000622352
0.00083137
0.000449112
0.000121198
0.000482926
0.00142806
0.0408199
0.000635691
0.000641106
0.00806069
0.000564441
0.00122619
2.18748e-05
0.00683245
0.000458327
0.000645477
0.00491099
0.04606
0.0487743
0.000339588
0.0473024
0.000712784
0.00445877
0.0381667
0.0446012
0.000962519
0.0429105
0.00565159
0.00146845
0.0945722
0.000497436
0.000814817
0.000163612
0.000256755
0.040889
0.00126458
0.00160519
0.00141368
0.000122751
0.0488214
0.00123762
0.000244193
0.00150361
0.0410965
0.0418977
0.000563181
0.00142598
0.000390739
0.0430049
0.0481377
0.000726475
0.000559054
0.00120393
0.000186538
0.0343848
0.00103634
0.0040203
0.000636959
0.00174406
0.0470805
0.0446758
0.0491407
0.002815
0.000551559
0.00142047
0.00191705
0.000124585
0.00063032
0.0435302
0.000575996
0.000574775
0.000552552
0.000699118
0.00115466
0.00186571
0.00125722
0.000861059
0.000111951
0.0570812
0.041998
0.000543327
0.00086514
0.0481646
0.000496765
0.0331832
0.000434642
0.0439161
0.000573463
0.00136223
2.85289e-05
0.000941501
6.25404e-05
0.00059535
2.20462e-05
0.048278
0.000565579
0.000462798
0.000196616
0.00142293
0.00119275
0.00122436
0.0473809
0.000399567
0.00131355
0.00123228
0.043748
0.00378956
0.000154783
0.000515982
0.00167592
0.0529361
0.0399873
0.000238918
0.00106316
0.053111
0.00381422
0.0450841
0.000411752
0.000396055
0.00114786
0.00663263
9.46736e-05
0.00251481
1.23736e-05
9.585e-06
0.000175942
0.0526862
0.0409612
0.00108475
0.0526427
0.000956601
0.00040737
0.00158496
0.0358825
0.000105835
0.000471757
0.000556984
0.000133544
0.0479119
0.0511896
0.00122078
0.000648298
3.07166e-05
0.000679167
0.000147995
0.0486468
0.000650322
0.00861552
0.0522663
4.96909e-05
0.00140509
0.0271482
0.000431162
0.0279049
6.17435e-05
0.00135418
0.0011449
0.0464714
0.000733165
0.0734037
0.0354381
0.000766893
0.0448561
0.0001965
0.000975354
0.0476154
0.00177689
0.0480515
0.0018426
0.0414565
0.0468308
0.00312814
2.71597e-05
1.14296e-05
0.00140927
0.00124763
0.000349375
0.0444168
0.00133714
0.00135704
0.00825557
0.00171831
2.85671e-05
0.00160883
1.27202e-05
3.86591e-05
8.24701e-05
0.000881592
0.048119
0.00112222
0.000216708
0.0480848
0.0471176
0.00013101
0.000696335
0.00129039
0.000537888
0.0480915
0.00115166
0.000599831
0.000643574
0.0481252
0.002864
0.00015347
0.0215749
0.000237832
0.0334155
5.89537e-05
0.000510299
0.0219135
3.00728e-05
0.000932696
0.000447051
0.000737198
0.0819034
0.00431367
0.000175801
0.0330565
0.0483092
0.000258672
0.000206374
0.0264097
0.000914712
0.0486904
0.00128968
0.0471657
0.000862507
0.038629
0.00158781
0.0014084
0.00100761
0.00714243
0.00077217
0.0422386
0.000411707
0.0490217
0.00112562
0.0296706
0.0016951
0.00158561
0.0593724
1.56171e-05
0.00173382
0.00125898
0.0630848
0.00369617
0.000107231
0.00115581
0.000770629
2.4903e-05
0.00142242
0.0394585
0.000582983
3.29487e-05
0.0462347
0.000565505
0.0484208
0.000103221
0.0479149
0.0011967
0.00161659
0.000801822
0.000291719
0.00170397
0.0521989
0.000350785
0.0411478
0.0478268
0.000481586
0.00140862
0.043948
0.000526526
0.0490526
0.00147311
0.00153172
0.000269339
0.0338393
0.00146183
0.000539949
0.00117073
0.00115023
0.0381615
0.00158402
0.00131656
0.0478441
0.00225817
0.000252126
0.0017205
0.0267263
0.000484
0.00431596
0.000199766
0.0357848
0.000748189
0.00101225
0.00106724
0.015663
1.51131e-05
0.000421723
0.0358847
0.0013902
0.0457444
0.000958198
0.000127894
0.000156157
0.0481438
0.000482524
0.0481159
0.00054105
0.000589307
0.000401219
0.00154389
0.000271955
0.0398741
0.0950992
0.000938222
0.00197709
0.00120678
0.00192189
0.00184108
0.000145675
0.0006088
0.0492704
0.00844959
0.00038221
0.0456103
0.000199558
0.0490365
0.00138547
0.00272143
0.0481763
0.0485807
0.0458985
0.0731759
5.03684e-05
0.0522388
0.00982405
0.000185207
3.04996e-05
0.00151948
0.000499906
0.0357049
0.000337814
0.0029643
0.00151093
0.0483177
0.0021869
0.0486136
0.000330732
1.62852e-05
0.00387964
0.0005483
0.00127924
0.0479846
0.00159817
0.00126799
0.000662622
2.06158e-05
0.0440867
0.0433711
0.00214641
0.000488701
0.000338347
0.027166
1.58619e-05
0.00208834
0.000571123
0.00115548
0.000133151
0.00374624
3.05839e-05
0.00188676
0.00157908
0.0542979
0.000570004
0.0103402
0.0489558
0.0426799
0.0477786
0.00125008
0.0382765
0.000555968
0.0476466
3.94991e-05
0.00136675
6.92353e-05
0.00116799
0.00141468
0.0710287
0.0355979
0.0411394
1.15022e-05
0.000868216
0.0484142
0.00269034
0.00151315
0.000427523
0.000985318
0.0479925
0.00135013
2.87785e-05
0.00180797
0.00110006
0.0478346
0.00177419
0.0480711
0.0278692
8.75042e-05
0.000267774
0.000590277
0.0463586
0.000152732
0.00141056
0.000346862
0.000522615
0.0491428
1.9671e-05
0.000401259
0.000136194
0.00168676
0.000222012
0.0422226
0.000183188
0.000527959
0.000579866
0.000390037
0.0527627
0.000238214
0.000387019
0.044822
0.000136494
0.046629
0.0010864
0.00127245
0.000400024
0.000707106
0.00146525
0.000929728
0.0485401
0.00123085
0.000381881
0.00055676
0.000404577
0.000406397
0.0411539
2.32282e-05
0.000422977
0.0468552
0.040625
0.000176842
0.0486719
0.000828145
0.000696501
0.0482664
0.00103491
0.0523953
0.000195465
0.00100504
0.00136782
0.00148622
0.000199197
0.0299327
0.0012984
0.00146928
0.0075786
0.00275415
8.87916e-05
0.00139451
0.00121932
3.66544e-05
0.000641452
0.000201349
0.000286354
0.045732
0.00143368
0.000454139
0.000280811
0.000832658
0.00118213
0.0413768
0.0522937
2.69691e-05
0.0464974
0.00165184
4.99695e-05
0.000386721
0.0489841
0.0346371
0.00039176
0.038656
0.00155222
0.000648315
0.000880799
0.000204837
0.000707177
0.00043715
0.00150228
0.000837081
0.000139755
0.000215034
0.0480107
0.0379602
0.000274428
0.000200037
0.00598825
0.00126085
0.00859655
0.0492479
0.00176942
0.000572824
0.000518236
0.048844
0.0462044
0.0413272
0.00060981
0.0329056
0.000711255
0.00118099
0.00100779
0.000941672
0.043916
8.37064e-05
0.0481331
0.000409449
0.000161593
2.14447e-05
0.00488321
0.0181285
0.0012819
0.0489698
2.91431e-05
0.00170958
0.010869
0.00861382
0.000799524
0.00372641
0.000323402
0.000355407
0.0463715
0.000375691
0.00138207
0.00119965
0.0140712
0.00114119
0.00148018
0.00173779
0.0415547
0.049081
0.000628325
0.00138954
0.000737719
0.000517478
0.00194402
0.00497084
0.000530369
0.00042322
0.000110175
0.0013484
0.000344693
0.00100291
1.77745e-05
2.02799e-05
0.0481043
6.46535e-05
0.00110034
0.0455467
7.56332e-05
0.000979547
0.0096813
0.0396739
0.000857322
0.00033215
0.000330821
0.00071444
0.000775985
0.00504979
0.0210837
0.00145856
0.00211406
0.0490653
0.000383015
0.00014128
5.60424e-05
0.000105253
0.0528534
0.000632793
0.000858023
0.000633731
0.0483601
0.0416659
0.0013018
0.00131088
0.0488769
0.0736758
0.00012836
2.72009e-05
0.000891662
0.00146497
4.76994e-05
0.0354677
0.0012548
9.7833e-05
0.0467927
0.000869118
0.00317247
0.0481283
0.0496654
5.00312e-05
0.0123429
0.00158376
0.000202235
0.000649877
0.000470122
0.000720833
7.79555e-05
0.0167017
0.0348989
0.00216819
0.045719
0.000661718
0.00157656
0.0351337
0.000215559
0.00201021
0.00155763
0.0388504
0.0413769
0.00109916
0.0105039
0.00137493
0.00143212
0.00158263
0.00126851
0.00152806
0.00163293
0.00061827
0.0418753
0.00142344
0.000642432
0.000123572
0.040737
0.0424909
5.69698e-05
7.00126e-05
0.0433164
0.00862607
5.61911e-05
0.0452453
0.000476278
0.0373327
0.000578546
0.000720205
0.000894672
0.000639123
0.000362034
7.18116e-05
0.0945002
0.000615421
0.0471028
0.00048163
0.00141678
0.0471727
0.000636342
0.000117079
0.00212834
0.00162506
0.0462702
0.00130118
0.046839
3.3713e-05
0.000615445
0.00110236
0.000642742
0.000155056
0.000395207
0.000337659
0.0222325
0.000425537
1.71687e-05
0.000486026
0.00172395
0.000606098
0.0308383
0.0462533
0.000903661
0.0480356
0.0210923
0.0484028
0.00154608
0.00136522
0.000453475
0.039013
0.000606312
9.94795e-06
0.000344792
0.000560595
0.000246634
1.93834e-05
0.000787043
0.000524015
0.00133739
0.000905741
0.0491836
0.00118775
2.65179e-05
0.000807926
0.0335172
0.000819397
0.00136864
0.0720127
0.00133909
0.00114642
0.00014567
0.00161016
0.00267335
0.000279149
0.000155435
0.000274479
0.0015395
0.0471803
0.00115334
0.0374454
0.0106024
0.0020309
0.000625651
0.000457634
1.31601e-05
4.92666e-05
0.000719152
0.0487095
2.52173e-05
0.00117707
1.17042e-05
0.000848996
0.0480135
0.0149464
0.047243
0.00110531
0.000574491
0.00118751
0.0319906
0.000619052
0.0455167
0.00138887
0.000451232
0.000121689
0.000359872
0.00131807
0.00140828
0.000542017
0.00147304
0.00174175
0.0006068
0.00128447
0.0036163
0.0404698
0.000352936
0.000191263
0.000874293
0.000357147
0.000275926
0.00255814
0.000317057
0.000267156
0.000463717
0.0949216
0.00173199
0.00099894
0.00113909
0.0404911
0.0462494
0.0478474
0.000717909
0.00173045
0.00207133
0.0436095
0.000299564
0.000547866
0.000108864
0.0010197
3.6957e-05
0.000164156
0.00136341
8.53765e-05
0.00170152
4.89095e-05
0.047759
0.00640883
0.00149077
0.000652997
0.000423473
0.000892913
0.000584403
0.0490466
0.000728391
0.00553091
0.000429863
0.0484103
0.0486664
8.69928e-05
2.87699e-05
0.000519142
2.28753e-05
0.000197765
0.00124589
0.00169512
0.045592
0.00192003
0.048678
0.00141212
0.000712588
0.000279041
0.00131405
0.000845982
0.0744134
0.0486597
0.00131484
0.0039095
0.00188723
0.00125586
0.0407583
0.000395913
0.000338425
0.000761383
3.38132e-05
0.0711525
0.000677504
0.048454
0.000249149
0.000151985
5.25776e-05
0.00116924
0.000521959
0.00164072
0.0013572
0.040599
0.0486675
1.45746e-05
3.97744e-05
0.000957466
0.000926734
0.000290493
0.00757356
0.00170487
0.00518745
0.00102029
0.00472194
0.0475042
0.00608521
0.000467865
0.000155762
0.0010463
0.00150072
0.00380864
0.000388726
0.00162522
0.00666679
0.000955171
0.00892128
0.00145761
4.50528e-05
0.000605016
0.0426261
0.0316013
0.0420311
3.49305e-05
0.047224
0.0331734
0.00144899
0.00124263
9.20098e-05
0.00124119
3.35679e-05
0.0478522
0.000545598
0.000182385
0.000358573
0.00135512
0.000617738
0.0467657
0.000899467
0.00401062
0.0486614
0.000893843
0.00060745
0.00135016
0.00110286
0.000837298
0.00155041
0.000392522
0.000571768
0.000257055
0.00127278
0.000276163
1.69536e-05
0.00126065
0.000185188
0.042816
4.93477e-05
0.000826175
0.000491271
0.00169027
0.000582644
0.000154076
2.39871e-05
2.00938e-05
0.000561033
0.0440117
0.0012877
0.000373975
0.0515387
0.000399742
0.000845613
0.000316977
0.00187304
0.0301742
0.00119433
0.0484776
0.0518249
0.000399962
1.12009e-05
0.0752106
0.000354651
0.000734109
0.0024463
0.0485822
0.000536319
0.00156013
0.00139581
0.00123441
0.000506086
0.00130138
0.00168996
0.0495093
0.0400048
0.000423311
0.0321039
0.0360088
2.55976e-05
0.00149253
0.0370693
0.0475245
0.0482883
0.00145019
0.000335918
0.0524032
0.00104169
0.00156329
0.00042007
0.0337289
0.0458939
0.000181899
0.000263466
0.000334849
0.000399294
0.0347543
0.000367065
0.00051112
0.0011955
0.0488819
0.00351283
0.000521226
0.048206
0.048447
0.048745
0.0510366
4.3132e-05
0.00156219
0.0425143
0.0451782
0.000763968
0.00179596
0.000306756
0.000559032
0.0360665
0.00134252
0.00368014
0.0413479
0.000297728
0.048163
0.0496687
0.0489217
0.0954864
0.000216691
0.000354642
0.00115021
0.000801622
0.0161667
0.0124417
5.76234e-05
2.33579e-05
0.00211145
0.000948034
0.000576405
0.00304382
0.000505715
0.0485483
0.000579484
0.000507393
0.000886455
2.99002e-05
0.00190297
0.0472578
0.000265117
0.000172075
0.0535909
0.0492115
0.00130703
0.000439814
0.00057819
0.00192362
0.000558157
0.000150678
0.00138879
0.00122611
0.0472773
0.0656181
0.0485292
0.000767292
0.00139426
0.00132267
0.0555986
0.000674685
0.00189951
0.000916804
0.0386142
0.000771212
0.0481007
0.0391971
0.00224111
0.00128519
0.00023282
1.10979e-05
0.043927
0.000980038
0.000646043
0.0938533
0.000393107
0.000809618
0.00162261
0.0487014
0.000672125
0.000699368
0.0394981
0.000604146
0.00743992
0.000223177
0.0415902
0.00176534
0.0481902
0.00103525
0.00108987
0.00146744
0.000569617
0.0340243
0.00147083
0.00040948
0.00163675
0.00302316
0.000956335
0.0478274
0.00308822
0.034556
0.00114429
0.0016328
0.000465281
0.00103718
0.00562402
7.52801e-05
0.00155349
0.0523442
0.0334773
0.00278779
0.0487084
9.69173e-05
0.00370814
0.000365606
0.0183952
0.000195314
0.00131509
0.0484202
0.0485071
0.000320991
0.00166725
0.0480877
3.34654e-05
0.00126745
0.000753403
0.00067219
0.00148762
4.77877e-05
0.000291322
0.00100972
0.043963
0.00168284
0.00314412
0.047879
0.00278155
3.43063e-05
0.00173501
0.000488088
0.00128461
0.0666988
0.00212376
0.0491158
0.0524843
0.00112298
0.000462499
0.000597959
0.0481505
0.000131012
0.000502251
0.00102649
0.000936902
0.0481263
5.64715e-05
0.00133641
0.00138461
0.0492428
0.0485779
0.00153887
0.0470466
6.13846e-05
0.000437857
0.0488533
0.0374191
0.00120206
0.0522928
4.94975e-05
2.28804e-05
0.000138587
0.00631183
0.00155922
0.000127642
0.037489
0.000429176
0.0536518
0.00016814
9.27388e-05
0.000535501
4.74739e-05
0.0737781
0.0734353
0.000459171
0.0396316
0.000602493
0.000566344
0.0488155
0.000644081
0.00394642
0.000826972
0.0011659
0.000265001
0.00108441
2.83021e-05
0.0412252
0.00056244
5.19411e-05
0.00265741
0.000728449
0.000362001
0.00146365
3.93542e-05
0.0478284
0.000257634
0.0548947
0.00126469
0.000647646
0.0475883
0.0486475
0.043373
0.00119698
0.0443402
0.042351
0.00102703
0.00145149
0.0938004
0.0480347
1.99983e-05
0.000474232
0.0441812
0.0451126
0.000671831
0.0481339
0.0455197
0.0491329
0.0481853
7.37805e-05
2.44451e-05
0.00128075
0.00084908
0.00213575
0.00472295
0.0434169
0.00123466
0.0449476
0.000106825
5.48213e-05
0.000572407
0.0380105
0.0471193
0.0013852
0.000421523
0.0460045
0.000458679
0.00126863
0.0018443
0.000102887
0.0538416
0.000657158
0.048273
0.00575738
0.00179827
0.0274355
0.00187798
0.00146144
0.000650268
0.0904152
0.000873602
0.0212296
0.000584744
0.000151816
0.00140595
0.0481883
0.0481387
5.14751e-05
0.000619934
0.0345203
0.000662694
0.00226148
0.0481641
0.0285997
0.0295332
0.00148993
2.97422e-05
0.042109
0.0131853
0.0480587
0.00074224
0.0487813
0.0324136
0.000363361
1.2151e-05
0.000418142
0.00377395
0.0484976
0.00154806
0.0318115
0.00125996
0.000541398
0.000962559
0.0063188
0.000473728
0.00146245
0.000603592
0.00143044
0.00129163
0.0441271
0.00163308
0.0011276
0.0480763
0.000490313
0.00106405
0.040071
0.00260655
0.00154598
0.000365417
0.000579358
0.000957728
0.000225645
9.12753e-05
0.000827529
0.0501702
0.00160194
5.46818e-05
0.00147587
0.000405062
0.00129565
0.000828395
0.0289056
0.00806215
0.000814375
0.000160171
3.042e-05
0.0495534
0.00144569
0.000435757
0.000579602
0.0397535
0.000264468
0.0479064
0.0483708
2.90979e-05
0.0473238
0.0491046
0.00017611
0.000360206
0.0471532
0.00133793
0.000492079
2.84972e-05
3.03794e-05
1.61182e-05
2.24312e-05
1.80323e-05
1.80145e-05
2.92901e-05
2.49111e-05
2.60228e-05
0.000904877
0.00436267
0.000222143
5.5008e-05
0.0358472
0.000175583
0.0929189
0.000279237
5.17158e-05
0.000668934
2.71481e-05
0.0429651
0.000191438
0.00132781
0.0002381
0.00112062
0.00162207
9.97944e-05
0.0477006
0.000733794
0.00080373
0.00169003
0.0015563
0.00870033
0.000799073
0.000918747
1.82867e-05
0.00133841
0.000642211
0.0427245
0.001691
0.00340267
0.0485178
0.000487283
0.000575554
0.000438332
2.98556e-05
0.000128834
0.00044222
0.00091643
0.000199888
0.000180951
0.047946
0.00126299
0.0639312
0.000819441
0.0312794
0.0490941
0.000539152
0.0581845
0.00279218
0.000654222
2.013e-05
0.00507029
0.000147373
0.0429951
0.0484079
0.000535536
0.000572032
0.000515899
0.000337439
0.0481601
0.0369069
0.00165199
0.000607862
0.0388855
0.000838705
5.53641e-05
0.0440919
0.00025271
0.00202744
0.00109946
0.00122509
0.00263395
0.0433807
0.000639638
0.00211774
0.00118502
0.000580251
0.0288699
0.00145243
0.0476828
0.0501335
0.0440006
0.0462925
0.000796809
3.76796e-05
0.000803991
0.0478095
0.00134163
0.00136849
0.000573295
0.000463657
0.00894552
2.48117e-05
6.91935e-05
0.000763244
0.0355196
0.00659546
0.000734271
0.0399562
0.0894338
0.00047483
0.00466956
0.0472842
0.0490664
0.0404042
5.62237e-05
0.0481859
0.00161335
0.0017446
0.0359303
0.04809
0.000264335
0.000223498
0.000385948
1.23428e-05
0.000770558
0.00121358
0.000113436
0.000280323
0.00130521
0.0453921
0.00138873
0.00234514
0.00577198
0.000286117
0.00135691
0.000336624
0.00137114
0.04848
0.0018064
0.00137211
0.000924889
0.00144098
0.00126519
0.00183413
0.00138135
0.0429824
0.000294242
0.000841171
0.000288224
0.000189266
0.00269927
0.00441415
0.0435921
0.0379319
0.0802357
0.000457973
0.0482632
0.000405101
0.00167974
0.000256075
0.000226609
0.000553182
0.000278348
0.0285364
0.00113674
0.0325307
0.000795692
0.00123969
0.0009298
0.00177972
0.04819
0.00155155
0.00113373
0.000109198
0.00133683
0.0112527
0.00122967
0.000375476
0.00133296
0.00146176
0.000942744
0.00148748
0.0489404
0.00106949
0.000570516
0.0486488
0.0481945
0.00058564
0.00112439
0.0413632
0.00469075
0.00523676
0.048066
0.0407592
0.0240611
3.00527e-05
0.00136445
1.40047e-05
0.0457852
0.000153531
0.00136475
0.00172415
0.00247384
0.00154502
0.0174872
0.000802756
0.00195281
0.0488689
0.00155165
0.0402214
0.00121566
0.0405054
0.0396753
0.000810618
0.000453422
0.000300178
0.00303046
0.000124498
0.000134247
0.000389387
0.00029222
0.00175912
0.0049734
0.000213337
0.000228859
0.00151089
0.0010279
3.67598e-05
0.00141659
0.00089534
0.000655938
0.0330505
0.0472972
0.00119859
0.00189554
0.0263686
0.0487336
0.00180632
0.0333769
0.000955022
0.000850471
0.0403803
0.0481644
0.0697314
0.000279628
0.00525014
0.0453571
0.00171614
0.0375403
0.0324899
0.00127599
0.000182712
0.00024836
0.000338658
0.00126224
0.000905711
4.50705e-05
0.000131013
0.0482072
0.0481023
0.000758346
0.0475497
0.00140292
0.000481816
0.00750672
0.00145065
0.00136884
0.0481908
0.00102796
0.00192387
0.000356353
0.00028035
0.0534504
0.00126189
0.0467719
0.0487136
0.000481908
0.000175659
9.64695e-05
0.000938338
0.041632
0.000349855
0.000940187
0.0774026
1.48102e-05
0.0452681
0.000488278
0.0438135
0.000991418
0.0110434
0.00453209
0.000613756
0.00034117
0.000798521
0.00147936
0.0485349
0.0015666
0.000342351
0.00271459
0.000687906
0.00989881
0.000588178
0.00116179
0.000119364
8.00603e-05
0.0485994
0.0432427
0.00104755
0.000939735
0.000739557
0.000696923
0.00105901
0.00104315
0.0377545
6.53729e-05
0.00153809
0.0343829
0.000889866
0.0530406
0.000919698
0.000827137
0.0018805
0.0483892
0.00134158
0.000259555
0.000316276
3.27686e-05
0.00120547
0.000508288
0.000775806
0.00111349
0.000283432
0.00158815
0.00019105
0.000327973
0.000770786
0.00134625
0.000346728
0.000532219
0.00143524
6.25629e-05
6.75147e-05
0.000908683
0.000448711
0.000211774
0.0486073
0.00041246
0.000442636
0.0480297
0.00192499
0.00135296
0.0475586
0.0484876
0.00120258
0.00162718
0.022757
0.0483768
0.00140058
0.0486338
0.0585751
0.00123436
0.0495157
2.04051e-05
0.000542025
2.86335e-05
8.44261e-05
0.000946476
0.00925395
0.00124768
0.000827594
0.00113374
0.0492186
0.000936759
3.74175e-05
0.000632439
0.000701728
0.000366359
1.80303e-05
0.000878857
0.000474851
6.90794e-05
0.00263124
9.10143e-05
0.0471675
0.0473958
0.0031413
5.55542e-05
0.0440768
0.044009
0.0327224
0.0485054
0.000691479
0.00127936
0.00184565
0.00724331
0.000167127
0.00283596
0.00150675
1.92549e-05
0.000526406
0.000564354
0.000153908
0.000624949
0.000154268
0.000774957
0.0482725
0.000451767
0.000400058
0.000267858
0.0352257
0.001388
0.000726887
0.0501755
0.000544717
0.000578658
0.000117957
0.000322572
0.000604287
0.00803864
0.000660464
0.0482727
0.0527909
0.048287
5.78016e-05
0.0157863
4.05487e-05
3.5323e-05
0.00138961
0.00168734
0.000554085
0.000775748
0.00123153
0.000548091
0.0481697
9.66385e-05
0.00169373
5.9423e-05
0.0536174
0.000261502
0.00158107
4.88532e-05
0.00991223
0.000629973
0.000338043
0.0483489
0.051633
1.59198e-05
0.048219
7.85723e-05
0.000327114
0.000332144
0.000770097
0.00109576
0.000387449
0.000561156
0.0484404
0.000281139
0.00155817
0.00780486
0.00117028
7.47073e-05
0.000473662
0.00646092
0.000654041
0.0475957
0.00110552
0.00143917
0.0465663
0.000331287
0.00102206
0.00066484
0.00162691
0.0465535
0.0462067
5.46957e-05
0.0335622
4.74989e-05
0.000233262
0.0487055
0.00157527
0.00157456
0.00163044
0.00134765
0.000520582
0.00135394
0.0433123
0.013358
0.000216298
0.000780668
0.000690911
0.000710138
0.0143113
0.000488348
0.0686228
0.00252126
0.00117811
0.00118065
0.000228857
1.68207e-05
0.000504637
3.2595e-05
0.00127485
0.0407525
0.00043831
0.00113508
0.0492264
0.000194648
0.0406876
0.0479835
0.0458412
0.00098402
0.000635317
0.000788985
0.00131663
0.0365244
0.00158875
0.000229383
0.000623687
0.000884205
0.0241051
0.000809837
0.00107223
0.000481416
0.0483574
0.0417874
0.0012842
0.000856744
0.000615398
0.000120544
1.8366e-05
0.0104413
6.41485e-05
1.55921e-05
0.000292792
0.000657493
0.000400941
0.00161255
0.00969942
0.00166466
0.000678377
0.000620413
0.00168405
6.30362e-05
0.000903914
0.00485015
0.00200339
0.000366149
0.000174809
0.00720122
0.00208734
6.57228e-05
0.00223889
0.0550993
0.0409726
0.00137685
0.0357854
0.0483644
0.00083445
2.9432e-05
0.0410495
0.000800666
0.000176116
4.45483e-05
0.000148132
0.0466111
0.0402576
0.0417133
0.0010508
0.000350322
0.000217471
0.000510896
0.000640248
6.25171e-05
0.00344444
0.00330754
0.0294574
0.0468031
0.0017378
0.000269032
1.44031e-05
0.0432255
0.000526002
0.00112867
4.79851e-05
0.00014158
0.00126393
0.0282903
0.0321761
0.000863161
0.00110937
0.0151234
0.00147957
0.000553549
0.0482125
4.54807e-05
0.000907797
0.0414237
0.0485527
0.00176189
0.0411915
0.00142772
0.0396391
5.55133e-05
5.71529e-05
0.000258716
0.000437511
0.000291132
0.0486259
0.000499134
1.6504e-05
0.000491449
0.00162311
0.000358098
4.05658e-05
0.00161705
0.000731275
0.00107244
0.000231951
0.0465709
0.00098577
0.000263667
0.000337361
0.00131228
3.06309e-05
0.0466366
0.000145116
0.00120771
1.94332e-05
0.000939142
0.0108265
2.57381e-05
0.0454383
0.0433002
0.0480422
2.4752e-05
0.000469773
0.000258841
0.00126278
0.000790727
0.000484011
0.000905003
0.0480349
4.00926e-05
0.00175699
0.00092173
0.00169217
0.000702389
0.000486189
0.0394383
0.000470611
0.000269123
6.12252e-05
0.00105518
0.000334389
0.000669537
0.000295778
4.79742e-05
0.000624257
0.000785416
0.00142016
0.000461138
0.0480111
0.00137315
0.0001076
0.000133819
0.00059007
0.0380587
0.0300193
0.0475345
0.00195852
0.0238911
0.000507208
0.00104503
0.0372031
0.00134671
0.048166
0.00121693
0.00039777
0.000512372
0.000507492
0.0473652
0.000459116
0.000614474
0.048109
0.0481539
0.00146914
0.0485642
0.000138841
0.0475287
0.00149121
6.10887e-05
0.000893429
0.00270747
0.000542635
0.0230154
0.0520197
0.000366043
0.00448383
0.000638625
0.0481679
0.000852928
0.000343931
0.0151276
0.0119014
0.0335883
7.26741e-05
0.0484392
7.35844e-05
0.00128262
0.000402027
2.79636e-05
0.000125396
0.000126004
0.00342391
0.000776436
0.00174691
0.0487245
0.00144443
0.0456383
0.0314053
0.0290423
0.00277504
0.0191412
0.00252869
0.0012308
3.0879e-05
0.000236068
0.000392873
0.0419223
0.000625661
2.10619e-05
0.022319
0.0490188
0.00292132
0.000696183
0.00209065
0.00044274
0.000364426
0.000862669
0.000148041
0.000752535
0.000341276
0.0487071
0.00188794
0.00114774
0.000639525
2.72726e-05
0.000463261
4.33534e-05
0.00139264
0.0471913
2.69281e-05
0.00048653
0.00132357
0.0431804
0.000486824
2.45604e-05
9.79674e-05
0.00191829
0.00249156
0.000854497
0.00127524
0.000514056
0.000703406
0.000167195
0.000439666
0.00426571
0.0014347
0.00110946
0.00205291
0.000846918
0.0478625
0.0018086
0.000650789
0.00275164
0.0143852
0.0484115
0.00188849
0.000761052
0.000867222
7.54033e-05
0.000318997
0.0746854
0.000259253
0.000679383
0.0453891
0.000472182
0.00028652
0.000269099
0.0278575
0.0480317
0.0490171
0.0475758
0.0632577
0.000326385
0.0369586
0.00111738
0.000938673
0.00350469
7.87738e-05
0.0042023
0.0109676
0.00330707
0.0466469
0.00136078
0.000101955