/*--------------------------------*- C++ -*----------------------------------*\
  =========                 |
  \\      /  F ield         | OpenFOAM: The Open Source CFD Toolbox
   \\    /   O peration     | Website:  https://openfoam.org
    \\  /    A nd           | Version:  8
     \\/     M anipulation  |
\*---------------------------------------------------------------------------*/
FoamFile
{
    version     2.0;
    format      ascii;
    class       volScalarField;
    location    "8e-05";
    object      T;
}
// * * * * * * * * * * * * * * * * * * * * * * * * * * * * * * * * * * * * * //

dimensions      [0 0 0 1 0 0 0];

internalField   nonuniform List<scalar> 
23640
(
93.4173
87.5369
259.765
292.605
87.7503
204.452
70.0799
129.117
109.956
163.202
273.077
81.6371
79.5073
84.8844
223.758
208.679
84.9201
246.063
262.503
101.76
269.823
208.163
269.403
270.052
93.8767
76.7952
156.485
109.178
75.744
95.044
74.6477
299.965
269.922
88.4675
106.77
229.613
85.722
71.1627
164.04
274.932
85.282
110.733
85.4311
151.215
297.061
171.787
86.991
87.7785
160.647
134.723
299.652
248.741
220.313
73.6857
292.796
234.397
161.027
90.8645
62.7603
297.951
73.8255
169.321
280.689
251.258
68.0515
250.89
201.728
91.6355
241.014
86.1702
277.745
88.3254
262.46
76.5771
205.819
299.969
240.524
78.8927
262.949
279.596
179.428
129.973
77.2389
77.4668
66.1608
211.465
248.256
273.917
265.814
227.166
65.5576
91.0972
159.953
262.839
247.671
88.706
252.685
232.723
120.252
167.736
123.647
73.7712
271.118
83.8271
106.412
71.7858
287.757
80.2646
82.6379
111.689
71.7074
262.644
91.2336
87.5834
170.832
75.2836
226.561
71.1106
93.322
95.3808
271.915
299.498
232.509
299.648
129.916
273.191
299.663
143.224
200.263
88.1647
120.483
117.871
80.2604
140.996
79.6684
273.969
271.987
92.7696
272.716
255.244
115.666
167.581
261.68
273.169
262.208
100.232
274.509
274.992
66.7668
247.634
142.78
226.205
76.9151
285.124
114.236
72.1774
70.1421
88.4445
206.061
155.102
231.983
211.95
227.301
196.764
76.7588
75.1883
281.877
160.85
288.202
117.421
86.9297
170.294
199.907
81.7063
283.199
283.143
87.687
165.658
279.852
97.1371
296.942
229.419
92.5937
102.095
79.5707
213.864
127.316
139.095
298.058
104.399
122.429
273.398
299.418
76.814
74.3078
274.545
107.79
205.977
214.311
148.059
267.909
145.194
73.666
110.854
264.978
62.3073
217.763
269.507
152.633
282.2
86.3654
90.3467
95.2839
63.0506
235.89
101.712
92.0615
100.789
160.893
123.386
94.3827
272.96
268.019
81.8367
269.387
90.142
76.5904
299.596
126.966
65.7768
92.2199
71.6206
97.0277
88.7147
88.0768
129.443
277.568
101.513
67.2709
181.117
124.816
191.743
85.7139
111.958
291.244
75.5541
122.339
228.604
280.508
272.25
298.143
76.9071
86.7664
283.409
61.4122
274.973
211.044
70.7813
290.656
289.909
295.84
72.8733
119.017
82.2387
81.3877
85.5414
144.556
128.033
61.2155
245.206
139.663
69.5211
272.707
297.97
142.8
89.4407
80.1091
299.515
251.732
81.1344
273.396
92.6457
211.865
273.958
158.956
170.698
156.741
222.867
84.1458
273.761
96.1896
78.8378
99.8102
177.384
272.491
110.425
84.2485
77.0583
79.8252
98.8251
163.199
252.302
299.565
92.8964
271.322
68.9134
120.737
157.079
294.647
262.056
74.7219
135.421
283.28
262.594
267.491
142.59
133.867
251.408
248.816
190.732
110.969
89.0602
107.56
108.694
79.2447
136.153
298.977
109.617
125.668
299.912
212.942
125.28
102.899
116.003
108.845
93.2939
220.968
132.605
112.886
79.5901
222.885
257.355
113.594
299.562
273.389
244.161
161.339
82.217
89.2543
97.1412
289.626
135.717
70.207
70.6426
106.295
70.5694
126.984
72.536
280.59
273.153
125.87
270.871
254.898
98.5187
100.083
83.3604
69.3906
143.709
262.975
95.6078
153.471
261.934
76.5368
267.801
129.033
70.525
299.398
182.507
109.346
145.039
262.051
261.502
101.656
256.804
108.666
75.9694
179.98
74.4991
274.561
70.7837
241.593
219.445
239.707
213.131
136.139
271.81
299.476
76.6737
86.0602
157.639
148.529
281.685
177.518
69.1895
80.0171
76.6597
293.845
75.3082
202.619
196.413
206.975
280.334
285.942
114.995
274.613
83.7973
168.036
83.06
128.465
94.4849
290.343
242.441
79.1183
215.486
151.797
68.4309
299.617
235.605
271.003
175.622
82.992
297.995
281.517
268.924
128.121
273.542
153.485
224.404
173.892
299.275
116.953
280.622
232.432
167.558
196.947
170.257
160.535
150.009
269.511
143.003
299.96
194.739
283.822
210.483
235.743
76.4889
77.6121
120.065
291.101
185.629
127.231
151.932
90.7075
300.001
211.863
95.4521
208.493
239.654
132.274
125.02
118.322
93.7774
296.013
150.298
140.188
172.87
87.8259
299.935
133.967
299.806
146.557
83.2459
101.794
164.414
223.33
152.681
269.512
130.022
76.0554
78.8307
143.874
299.923
78.5217
272.084
105.941
76.5075
153.525
210.294
162.448
74.8465
88.0429
277.759
68.7966
96.1985
91.6953
61.5933
133.577
71.5779
78.6786
80.447
173.384
109.998
201.342
209.726
268.404
85.0836
90.2487
74.3753
113.438
274.995
214.235
236.666
299.991
234.277
85.1713
91.5215
267.242
121.259
262.363
63.6183
77.8368
269.442
138.332
231.943
236.355
83.7459
214.994
118.323
76.2726
111.427
204.203
91.7361
107.218
79.054
79.019
85.6786
232.946
263.523
93.8252
93.7019
178.18
88.3183
238.218
128.779
170.974
86.5441
93.1506
194.861
271.894
283.247
188.036
274.031
94.8833
149.325
257.443
268.918
192.444
266.275
168.359
200.471
299.959
86.1928
106.679
69.5495
70.7761
262.83
232.724
207.78
116.457
86.2363
298.067
113.485
72.408
120.98
262.989
266.631
198.248
117.097
76.1812
266.433
280.7
97.7573
86.0088
112.827
61.7581
249.652
99.4385
140.66
94.2587
135.881
274.507
269.776
291.434
137.527
95.7129
211.934
151.701
116.789
86.0146
267.03
93.7458
143.678
83.5761
100.33
203.822
144.476
232.357
101.847
78.6409
299.665
264.727
84.3722
103.911
280.988
85.8292
247.087
79.861
268.245
89.8453
232.176
78.287
144.395
154.896
97.5699
114.716
294.685
88.6793
82.1761
77.6906
225.973
112.416
234.925
274.182
79.383
225.788
113.614
267.944
139.595
75.8734
82.1757
174.204
299.582
262.555
66.3391
100.113
298.904
158.629
269.741
81.3306
197.453
101.339
165.706
74.9479
138.966
226.604
225.151
126.964
299.55
264.303
181.596
299.564
111.907
76.6812
198.832
253.05
81.0545
84.3526
89.2473
78.1216
277.977
298.636
112.043
93.674
144.482
87.9523
78.4423
293.888
87.9946
177.79
299.544
75.1396
225.775
234.628
82.5567
234.785
84.5568
222.009
110.696
272.515
90.3797
300
252.136
92.6044
271.095
80.709
106.103
274.719
146.31
275.822
127.768
263.293
273.502
151.734
104.547
209.634
231.176
214.821
74.8219
268.652
236.222
112.249
170.804
137.67
99.0285
112.05
278.369
82.1203
74.6543
98.1601
290.015
111.377
73.1656
277.876
273.684
72.0289
89.0428
240.484
84.325
278.315
112.132
187.959
86.9481
278.551
149.075
84.6245
220.355
73.282
255.115
71.0799
90.0721
218.933
68.2838
105.077
85.8095
97.8335
299.903
143.986
82.7159
246.703
276.349
70.7768
64.6407
232.571
102.833
292.773
236.727
274.908
93.9313
258.001
111.518
217.255
98.6091
168.514
91.359
267.062
81.202
285.624
109.506
239.221
220.675
125.023
299.694
220.014
215.637
232.699
299.815
138.561
82.573
102.257
91.7709
135.163
220.644
260.309
90.032
107.397
272.014
215.933
279.049
94.1619
275.352
118.728
173.313
103.356
71.6592
137.195
298.64
75.7837
263.069
275.975
89.321
206.932
269.087
86.9699
293.999
207.618
125.502
68.249
265.687
227.555
82.5383
111.143
239.316
267.737
110.395
238.973
275.199
121.699
74.3119
134.594
232.803
86.7379
142.851
79.2112
252.727
90.9402
109.138
204.28
199.113
200.704
83.2141
252.868
135.742
271.825
104.89
71.2555
76.9402
285.462
86.7422
276
88.6097
97.9399
79.723
210.5
123.079
261.082
299.869
145.373
122.394
116.353
124.632
126.259
95.3806
94.0236
287.219
169.745
79.2151
271.598
72.8974
298.387
230.761
140.026
276.012
280.171
271.711
300
76.5081
298.177
187.374
82.5024
70.677
121.644
95.0219
252.48
75.5425
151.256
148.162
279.409
120.729
293.51
130.585
196.571
139.794
82.5353
231.327
276.093
112.182
231.122
199.528
149.727
268.713
267.342
208.473
85.9243
75.3582
234.725
234.57
123.653
208.039
123.029
71.6383
148.948
72.2345
158.129
115.096
299.137
89.1583
179.041
287.191
265.859
276.683
226.522
258.063
95.6381
274.733
68.5943
224.689
75.6746
110.583
202.689
299.988
252.297
262.651
265.866
97.5018
296.357
131.765
233.863
90.9531
116.082
278.861
225.485
70.8016
194.576
212.488
276.855
154.637
275.909
235.9
76.2905
73.1657
87.2051
272.844
72.4175
237.611
77.4901
96.2027
285.768
175.468
78.6596
81.0674
122.145
64.7208
265.048
113.6
81.9257
205.137
76.2477
298.878
68.8435
76.0072
269.952
95.5914
273.265
111.211
226.132
80.6651
91.954
235.957
103.513
278.429
232.826
81.2466
83.1196
77.2669
76.9925
262.851
153.252
83.7866
273.312
262.335
110.647
292.655
106.797
91.0878
276.234
107.519
298.834
62.708
109.873
214.867
156.718
112.106
240.115
104.694
231
166.334
136.108
72.8803
230.415
239.565
81.4733
92.3118
73.9834
69.5219
271.884
180.065
153.064
69.2709
93.6643
240.695
263.471
299.495
89.6049
272.798
112.196
94.5314
78.6606
291.065
260.914
75.87
258.518
111.609
141.818
95.0677
79.2464
95.9524
82.0958
221.138
100.187
83.0074
111.617
275.829
269.621
68.659
80.7863
161.994
111.667
173.218
298.546
125.32
93.2836
82.2865
297.775
272.465
263.162
93.8469
246.185
106.555
239.913
98.252
179.792
268.927
98.6068
281.101
77.014
134.391
132.503
149.232
209.744
228.793
281.285
73.8783
169.835
192.72
184.169
112.395
138.151
74.3025
77.7344
272.368
80.4989
215.774
108.973
194.758
238.526
229.024
132.655
264.05
281.387
89.2693
107.182
99.154
96.7027
143.686
168.945
96.9602
83.2345
78.031
234.287
73.511
110.171
159.595
177.287
288.926
80.0384
111.099
270.591
99.0336
104.676
178.656
261.058
136.869
75.2635
75.2508
109.71
98.1001
153.794
216.973
229.928
119.109
282.374
79.4882
112.709
73.1022
81.2801
299.589
91.9886
93.6301
91.8724
297.358
263.603
221.942
222.08
284.01
300
79.4473
115.364
118.898
227.537
78.5677
252.174
221.064
76.825
273.581
158.371
148.564
288.642
295.044
83.6389
188.069
181.434
73.1538
99.3203
149.781
90.0893
74.2069
205.861
269.048
119.964
271.192
88.6735
198.054
250.681
75.9651
131.61
112.673
258.464
265.619
100.267
178.135
127.43
213.659
114.625
236.638
189.772
165.627
91.1826
264.03
116.145
91.2218
95.741
262.314
265.54
71.6608
86.6672
266.891
183.858
71.2475
271.371
94.1063
255.755
91.6631
205.481
121.089
92.7917
73.8598
80.7546
299.985
168.921
274.641
85.258
127.148
274.86
86.3295
83.7169
119.59
194.151
272.606
232.802
273.816
66.2464
85.454
110.9
94.1451
113.317
76.4325
75.5985
219.402
83.858
167.615
85.9145
191.956
92.3928
241.814
272.493
104.065
279.083
218.81
296.542
112.125
230.919
84.8884
259.151
94.3674
273.893
73.3534
89.5834
70.3886
141.234
100.9
81.8487
111.251
204.842
288.406
223.856
109.058
100.18
247.608
165.979
234.905
299.998
235.797
103.691
80.8233
199.538
126.999
71.2067
130.989
73.9604
124.415
275.197
164.786
256.145
180.001
122.298
92.0409
79.5769
200.433
74.6575
95.7892
278.048
161.771
238.786
261.565
101.665
276.384
197.838
274.936
109.419
89.0709
226.181
244.268
87.5823
271.351
237.674
83.0488
83.8465
76.8845
241.181
116.255
84.5951
230.493
173.087
92.2699
230.346
136.025
261.909
79.3013
69.1523
103.303
73.6655
71.9523
193.598
74.0026
73.8219
95.0385
299.997
140.183
174.385
105.235
261.985
272.565
275.866
96.8243
179.365
119.068
267.819
70.8238
90.7313
78.6676
101.134
87.5344
78.7099
108.676
77.5246
169.493
76.3353
274.923
187.383
110.468
92.6433
77.6632
154.28
87.9055
287.226
96.9489
160.119
78.3508
279.724
280.749
74.9349
75.6095
86.2789
148.241
77.8198
110.878
116.212
271.504
151.333
283.267
221.793
89.5163
72.4649
109.501
93.9556
299.911
277.852
229.584
149.241
121.535
233.939
262.623
79.3311
72.8446
93.9163
164.057
299.996
97.793
290.486
73.4213
82.3615
78.3685
111.345
81.9706
120.435
209.546
262.155
278.113
192.358
86.4402
104.529
143.673
71.5137
167.629
151.863
163.396
101.207
147.751
276.227
157.202
79.9356
69.506
210.339
193.142
151.256
75.9245
112.381
157.767
96.9841
177.377
115.598
81.9512
225.071
267.855
251.772
266.074
70.4578
275.018
247.074
229.827
113.205
81.3424
223.218
91.7951
275.422
83.0316
68.2746
73.4609
110.607
91.5105
273.633
94.8418
145.416
283.119
196.705
220.957
215.558
102.626
198.468
110.835
81.1729
89.2811
73.6226
216.432
86.0597
188.185
235.567
84.7456
266.053
69.6538
172.041
84.8947
171.551
211.935
137.474
122.288
132.183
88.7315
268.378
239.467
80.3067
298.233
79.7519
94.0389
118.536
129.297
240.315
240.382
296.865
298.326
76.5104
248.433
300
78.3954
93.2393
137.26
278.34
88.4193
179.535
106.826
112.9
83.5112
234.633
116.661
296.196
261.517
77.4083
244.545
257.252
153.728
119.053
255.053
276.188
280.06
231.58
72.8001
298.441
201.015
174.045
77.2305
253.168
271.541
84.7289
74.8865
72.7081
76.313
250.752
74.1341
96.7112
111.371
280.135
146.1
82.3038
283.408
297.517
283.09
298.472
84.5482
110.59
267.068
271.231
92.3722
120.041
70.958
91.4282
253.361
228.214
145.317
263.663
70.5177
291.319
295.413
283.333
299.843
72.1504
77.9264
108.894
93.4029
204.75
196.987
79.4122
106.387
137.091
103.674
89.4184
147.545
81.4493
281.372
196.643
83.3128
103.425
73.0403
132.895
275.313
67.941
83.7501
298.931
281.96
217.292
83.4845
90.063
132.552
88.8547
83.441
108.992
236.444
274.045
299.627
290.562
201.644
234.881
230.227
299.332
217.666
131.692
102.973
265.145
102.161
275.84
259.452
149.867
203.015
85.8065
218.605
267.674
103.599
94.5995
299.929
75.9205
176.746
169.154
293.17
94.9855
97.5913
260.011
170.859
166.071
68.5296
266.908
113.739
289.162
108.74
100.066
219.704
189.595
249.197
236.194
93.1327
163.612
130.21
104.304
277.694
130.695
249.631
109.939
176.955
86.1425
107.914
151.163
73.1789
174.243
299.527
247.83
192.166
277.961
138.191
152.141
78.4489
209.942
63.0322
224.448
282.287
281.323
74.9372
123.058
280.838
102.968
103.761
91.0342
96.2963
116.752
79.2336
70.1393
104.897
267.72
128.994
132.163
276.997
128.118
179.12
126.066
84.7483
114.14
299.947
121.866
286.179
299.503
109.361
78.9666
123.078
286.673
84.2807
85.5843
195.139
106.813
281.313
72.0261
134.834
230.644
286.91
278.159
187.295
274.32
74.431
83.4335
279.975
255.638
103.081
299.534
79.6683
138.851
94.4346
158.038
122.265
112.438
262.816
93.1886
299.598
76.8923
122.857
96.4258
85.6991
300
300
84.0392
260.044
91.599
89.3819
279.291
93.4125
139.756
92.6973
112.299
67.9873
108.357
111.767
264.373
88.6137
72.6844
125.934
96.4601
79.4561
236.825
68.1038
277.8
118.127
299.427
206.887
118.835
275.19
278.037
267.027
111.347
268.606
265.324
99.0142
118.927
299.961
275.733
174.794
79.5854
268.338
270.968
97.5783
281.597
270.574
288.841
278.694
93.5555
97.9064
232.04
102.6
201.285
151.854
267.628
234.453
270.212
71.8158
82.6289
198.612
257.13
273.702
130.307
77.3142
271.924
84.6119
232.653
135.304
131.393
299.601
140.711
276.791
152.614
125.243
235.417
128.577
214.734
92.4458
299.641
103.175
216.442
84.3595
83.1229
227.621
293.267
290.086
69.4887
88.0427
250.207
196.068
121.305
276.138
236.618
240.558
118.984
68.5109
264.857
191.069
277.94
100.897
293.931
257.729
79.47
222.526
82.8043
137.467
280.052
111.948
244.659
212.714
90.5581
194.099
156.229
84.2105
201.988
91.2521
129.597
228.184
268.539
191.246
209.189
275.685
88.5074
99.667
260.677
127.168
122.214
77.7098
90.2701
100.075
72.9544
78.1391
146.371
299.144
207.984
68.273
119.854
79.8092
144.975
92.9548
237.741
171.172
103.252
77.421
69.5014
298.758
197.717
91.6102
90.3369
260.724
67.9817
277.178
278.982
75.9328
275.135
286.813
72.2796
73.3953
273.808
132.064
84.9582
76.2682
66.9994
170.62
94.4471
137.519
184.555
65.9601
76.1275
69.0345
95.2276
143.339
122.32
70.5623
252.951
73.7715
299.971
88.093
73.9003
88.333
110.937
266.555
78.1903
110.501
73.2351
103.034
145.3
71.9262
274.947
96.7051
91.5602
162.915
119.501
180.663
92.2741
95.6444
208.878
207.49
91.4631
266.22
121.887
147.909
282.771
84.7454
89.2804
82.0635
120.193
80.6575
83.5556
104.47
62.7183
69.0001
276.188
237.485
299.898
99.7725
242.76
283.207
93.6555
299.742
128.523
89.5117
186.97
156.812
81.9919
266.372
282.553
94.4313
90.0618
96.0683
75.2094
294.518
263.822
176.622
86.8285
259.16
100.017
73.8294
268.866
87.7511
154.902
102.986
236.778
130.617
271.374
99.2433
122.098
112.702
97.8269
237.44
116.83
276.719
298.023
268.348
272.944
99.9527
88.3963
92.5725
275.436
233.393
231.859
89.1751
83.2012
172.137
130.163
85.2981
91.4226
252.5
160.097
180.428
260.831
299.686
185.769
150.703
273.982
282.702
261.612
84.8251
294.873
180.811
159.599
253.138
285.868
67.919
64.8373
81.3399
196.343
91.3856
102.672
122.953
72.3954
233.158
270.381
227.276
146.336
161.305
69.5848
234.843
75.6366
136.8
279.799
135.976
230.154
105.875
231.19
111.517
114.534
233.335
266.651
72.1368
100.5
69.6631
69.2147
189.871
152.203
271.79
257.046
299.842
84.1092
276.605
76.6932
129.444
68.8283
73.0716
83.4084
73.3398
237.304
177.064
245.602
97.3783
113.577
106.965
139.351
278.925
188.396
168.128
97.6921
220.857
192.813
234.04
80.7228
208.023
121.307
96.4072
223.332
280.461
108.294
88.9647
278.019
286.384
87.6941
111.593
265.011
150.41
151.171
278.157
262.634
224.593
121.213
111.247
192.77
271.903
75.2301
170.3
119.343
124.673
111.796
206.894
104.12
124.004
279.21
111.473
261.586
103.155
262.337
260.307
215.817
78.5282
70.801
131.436
73.9774
88.026
91.6782
72.4853
124.04
162.675
73.4081
81.5243
211.778
108.851
91.461
241.381
151.22
93.6264
246.508
274.582
102.166
166.596
231.058
278.927
142.381
247.836
96.8049
96.0968
261.823
284.885
299.891
69.2016
152.344
270.155
122.553
255.863
245.579
111.439
75.1225
74.316
91.4903
233.866
102.625
80.8948
80.956
293.549
289.084
117.09
276.211
132.392
84.3082
164.807
229.388
106.134
283.747
112.505
136.468
76.6208
69.467
299.594
112.509
273.175
277.974
82.5006
80.1399
95.212
103.913
263.96
78.6582
103.626
299.796
194.87
269.963
84.68
267.514
211.069
183.937
152.553
85.2823
76.0968
94.0709
203.276
280.288
179.578
76.313
135.605
92.4782
176.676
90.4528
108.515
120.787
74.1378
282.723
266.843
98.7336
103.579
90.4775
89.4021
107.357
219.874
256.314
75.7936
120.349
249.37
103.967
299.546
96.0853
100.214
209.571
286.86
113.935
67.5554
73.9997
82.5385
111.781
108.562
91.3165
100.192
80.6931
118.032
70.6969
74.7113
189.671
224.978
76.3436
82.0562
193.22
80.2011
73.898
95.6005
93.5941
80.1572
278.029
82.8513
83.4171
289.458
117.033
210.727
276.483
291.722
111.795
186.872
223.805
286.597
233.782
277.867
299.724
113.641
296.532
125.419
85.238
105.554
93.5903
103.921
177.178
226.088
100.007
102.019
287.577
113.926
66.8231
91.7343
99.5582
74.1996
203.613
102.746
88.297
73.7153
151.231
75.5723
273.854
275.314
177.709
68.4609
268.94
270.664
246.03
277.245
88.6474
114.398
178.519
165.436
78.75
128.878
192.62
201.613
96.5389
89.3217
67.9707
95.0822
80.5629
90.7441
280.982
78.4078
79.236
68.4217
258.759
185.161
90.2471
299.207
82.9614
90.3837
83.1573
72.1883
182.271
173.635
96.6118
283.42
298.875
281.264
70.8882
202.847
81.2174
85.4251
114.612
209.722
89.0627
97.1436
218.033
90.4437
276.321
91.9152
130.202
71.3999
299.247
67.8836
153.666
75.8796
176.086
86.7351
73.0329
283.506
298.7
240.012
282.757
74.4022
72.2556
75.1609
95.0057
178.501
75.8372
95.2763
279.292
69.0663
182.473
177.841
152.012
127.71
80.2259
175.656
87.4697
276.568
108.862
226.7
272.468
74.8729
109.454
93.091
117.145
272.554
272.731
71.9005
249.532
81.654
65.8056
278.178
110.075
157.712
217.649
212.643
89.2924
114.08
269.513
195.969
73.4113
189.105
94.0928
89.998
199.219
84.6374
299.688
124.85
235.997
110.19
89.0798
224.483
86.4509
95.9641
226.992
262.584
83.7688
100.77
298.566
71.9279
262.236
291.669
271.564
107.607
92.5493
103.566
225.525
254.216
218.914
73.6243
91.6894
151.576
227.45
98.9379
108.399
84.3402
283.833
264.151
214.987
109.748
85.7908
87.6396
194.363
179.363
71.1295
196.306
73.2861
171.582
114.284
116.381
174.85
126.626
88.6741
193.493
121.4
80.3322
105.581
154.618
139.293
74.5818
78.3437
162.709
199.716
72.5662
199.852
299.306
263.183
114.196
255.496
279.35
93.0453
76.1987
263.119
216.819
80.3352
76.4867
73.3155
272.748
261.068
265.255
107.679
76.7504
76.7572
81.9312
92.4766
79.594
134.923
141.44
238.764
274.091
141.352
73.097
207.323
266.412
82.2985
109.853
78.1218
74.1831
120.46
235.891
244.791
138.559
132.254
200.935
191.722
200.331
280.169
78.5877
196.829
263.573
291.811
193.023
263.397
226.774
259.969
71.2907
72.8726
70.0173
77.9712
70.1221
283.786
83.8946
172.589
84.9899
124.213
73.6599
66.1845
174.692
90.0754
101.836
114.562
272.439
214.589
72.363
72.8351
219.164
95.4282
273.648
80.2723
106.192
192.617
106.213
186.86
90.0901
271.014
266.987
289.167
133.471
85.1013
88.3439
236.153
102.519
85.6323
105.1
289.048
67.3761
147.29
130.178
133.493
95.2272
127.183
259.344
80.7918
80.9304
71.7309
99.5001
84.6774
130.601
86.5119
80.2928
93.6402
91.9009
230.013
85.0653
291.396
235.633
124.901
83.9984
103.598
258.55
240.027
276.111
141.277
226.64
93.4238
109.006
255.215
113.411
280.97
228.982
79.2646
186.778
81.6955
274.568
86.0656
85.4628
293.402
284.245
198.076
280.101
79.8138
276.117
187.844
89.6796
184.384
175.415
97.0734
222.312
298.115
73.899
144.797
92.0968
289.589
103.472
76.191
200.198
187.089
248.191
160.968
293.103
72.2447
111.666
80.1764
107.106
78.1296
78.098
152.801
91.4479
129.752
294.605
121.425
271.35
243.401
237.332
128.837
211.425
150.7
109.82
93.6742
70.1662
76.003
264.168
95.0942
193.805
219.76
286.974
128.988
94.5884
176.629
78.4239
77.7029
100.907
83.5629
99.0081
73.0901
287.494
142.66
102.453
94.8394
169.914
79.2121
77.1389
114.472
274.022
74.2606
85.2148
213.553
266.317
85.4187
85.4073
77.216
116.357
131.028
101.867
143.857
86.5773
94.793
73.6928
83.1447
191.199
228.561
109.395
138.92
95.6619
278.102
141.57
93.5559
136.9
194.296
280.939
150.728
97.7888
96.7308
78.1541
120.456
300
67.712
88.4108
270.543
86.7962
71.245
68.3384
235.508
276.724
294.443
276.435
299.651
84.8383
255.27
109.286
113.521
169.769
73.7377
150.029
188.025
134.175
273.706
217
88.3931
202.721
101.663
132.291
105.89
279.297
174.814
93.057
74.7463
119.065
138.407
94.5302
274.002
114.619
258.065
105.714
87.5946
299.613
73.6363
273.826
110.063
72.7829
77.0687
94.7291
106.984
75.97
101.677
71.6525
207.571
72.6098
69.851
92.7264
88.6948
199.893
274.169
77.6326
92.2815
272.184
71.3554
70.8877
86.1882
98.3981
264.526
151.752
106.831
220.099
281.687
191.391
104.168
91.114
126.449
176.841
155.046
66.5867
101.676
98.8817
95.2608
169.975
173.929
71.0262
109.027
129.825
266.442
95.3252
243.105
100.193
281.092
86.2418
160.665
247.75
236.024
149.051
264.445
272.131
83.4656
231.052
186.116
208.557
283.9
91.1616
175.022
94.4579
143.198
124.323
202.396
79.3728
202.705
82.1732
66.714
283.664
273.648
218.698
103.569
243.386
80.4731
300
72.5941
172.071
108.372
85.6518
288.368
105.435
182.968
83.9221
96.1165
147.219
151.12
61.3226
89.898
68.0951
161.49
82.3063
143.256
289.619
280.319
122.123
294.299
88.6437
188.78
88.7787
260.101
81.3208
178.804
96.385
84.0357
71.9962
87.065
269.6
277.953
114.754
70.6602
275.069
83.8075
166.674
93.1549
106.626
94.0946
67.0647
68.8762
75.5432
294.605
178.377
110.656
141.21
299.701
116.674
228.329
93.0512
92.6584
147.031
299.633
93.3961
108.753
267.305
183.895
299.744
69.6643
261.116
259.869
228.567
101.371
225.261
269.938
78.7486
143.69
288.931
87.1419
293.46
279.17
84.2276
283.487
83.9753
271.546
106.009
163.018
85.7761
90.1208
150.574
206.624
259.669
128.645
72.2542
294.951
96.0016
102.99
87.6972
86.3318
291.54
85.7297
233.928
266.569
108.675
144.283
105.396
164.656
161.417
276.515
172.213
94.766
275.389
168.618
143.16
222.447
85.7797
93.1378
238.076
262.786
274.208
93.5336
284.127
78.0015
102.552
156.103
254.326
109.115
99.2605
205.028
203.343
92.7862
179.742
88.3392
77.6722
108.598
151.534
275.459
62.4706
283.392
88.4209
65.4956
106.836
71.6183
228.214
77.7877
111.393
174.155
85.1991
87.4781
257.003
128.711
67.5175
253.129
137.684
103.418
160.173
230.778
288.983
299.552
96.4033
233.777
178.103
115.521
81.1508
95.6983
232.001
157.636
207.472
155.11
93.1657
75.6034
80.5826
198.687
83.2721
246.836
113.687
208.119
68.9526
269.494
159.151
86.0083
88.1829
74.1857
89.4293
217.082
127.399
259.554
77.2273
111.07
101.138
73.275
227.102
110.033
284.937
261.881
136.119
69.397
94.3651
114.075
67.8525
102.031
271.244
176.325
92.4705
188.293
276.532
82.3861
88.9116
295.65
102.405
70.6784
153.393
86.8781
106.865
74.1011
193.127
266.445
212.154
279.304
83.4469
282.604
204.084
220.625
272.693
105.23
288.924
212.38
177.289
127.579
76.4439
81.5217
68.51
202.839
197.542
299.561
276.853
112.752
202.746
87.1588
267.19
81.2389
108.006
124.301
166.03
231.919
133.629
81.7561
106.407
91.4352
70.0815
77.9573
87.7607
132.537
131.097
207.251
171.477
113.617
130.062
257.409
94.2815
105.231
88.3487
124.114
272.791
181.865
96.7424
69.9988
215.202
107.327
92.2972
274.979
234.644
98.9795
95.2227
108.067
296.678
280.698
84.7497
110.15
106.213
93.6061
105.657
85.761
77.0514
287.292
102.42
194.735
246.636
152.507
140.981
277.871
98.4301
264.618
173.615
70.5038
240.212
167.888
177.526
279.058
72.9846
282.518
286.082
271.281
77.1303
299.246
172.837
115.983
108.44
91.6491
152.959
299.706
299.713
103.911
74.7904
105.196
110.12
280.597
176.697
210.897
295.565
260.706
73.453
200.986
281.468
252.366
90.0666
284.752
152.658
107.206
90.6075
274.512
109.475
113.928
295.545
81.4686
134.441
282.09
177.372
109.697
293.934
74.4995
274.142
93.0871
175.653
140.715
217.264
101.346
74.6408
112.34
91.0413
119.498
93.4689
242.304
116.393
96.0577
262.372
70.7269
122.015
84.8241
173.568
156.574
93.3489
71.8931
217.519
170.445
112.847
200.708
94.2688
113.041
116.765
75.1516
62.3238
84.7116
292.933
127.499
140.211
194.876
242.768
213.219
298.571
115.697
224.055
108.796
179.488
165.24
226.541
96.249
85.041
260.076
225.292
77.6387
185.686
75.8518
281.795
233.137
80.6649
89.339
166.161
214.2
298.295
187.124
98.2099
76.465
82.1587
65.1393
220.7
75.2931
220.412
255.485
192.019
122.812
247.815
232.571
91.088
188.698
151.832
268.364
299.518
115.021
257.119
299.439
299.647
225.329
268.605
86.4256
234.529
91.7852
188.622
101.798
90.3088
193.098
123.441
110.938
87.9683
207.622
99.8189
121.558
70.8019
250.239
208.996
103.049
287.714
72.2537
272.838
299.567
299.909
73.9782
182.782
193.321
91.4721
77.7522
102.8
282.13
189.062
275.916
266.515
71.0778
64.5698
111.829
81.1269
66.0991
214.13
83.0344
202.852
67.0679
105.924
153.467
229.382
88.203
78.1676
225.883
106.846
122.647
109.583
165.14
157.141
247.261
162.344
217.197
101.022
143.688
78.3712
239.086
218.113
158.994
176.514
85.6474
196.882
264.555
116.69
138.617
224.367
159.849
79.553
185.828
102.748
76.4956
76.1624
231.76
294.953
91.2124
91.8536
67.8307
70.1197
69.763
69.1994
68.7578
251.324
264.244
239.214
262.328
235.277
244.108
87.6782
72.8493
107.71
112.497
113.797
73.5504
78.4809
116.641
243.396
77.4359
103.859
204.374
125.213
140.559
79.148
113.097
73.4796
182.266
102.758
74.94
273.643
86.3996
213.199
191.125
68
74.1528
92.3324
251.678
294.304
276.178
94.851
233.311
125.893
93.6231
101.506
121.274
138.414
299.509
280.776
94.8832
86.4197
264.235
252.656
75.8066
295.52
262.446
91.43
126.191
285.62
264.184
153.454
107.132
129.63
259.423
143.112
199.928
127.026
226.714
115.014
276.107
162.92
80.3266
274.646
105.097
123.091
84.5417
168.103
93.1227
85.154
115.773
131.867
153.949
112.907
283.443
74.0765
268.038
268.219
78.9358
159.135
264.69
256.075
273.306
146.674
74.3366
109.531
110.512
133.188
90.9536
179.79
158.404
159.631
276.947
233.027
98.0732
80.0319
112.742
261.892
137.763
70.9357
69.046
108.683
208.506
259.003
110.099
119.097
102.192
156.273
224.22
95.4678
182.519
87.8095
83.233
279.987
268.406
108.858
152.383
269.826
151.15
270.869
103.432
241.835
102.03
274.948
171.105
190.323
299.494
216.024
296.585
93.5678
105.504
109.058
68.6346
127.332
97.8233
141.071
71.807
118.67
164.473
126.313
151.966
188.81
261.597
288.581
219.86
282.451
295.982
288.83
106.451
71.4325
179.13
272.558
93.7938
94.8256
89.2275
104.422
75.7035
90.5242
96.4538
258.481
270.754
239.76
151.904
101.593
80.4558
82.7845
286.182
216.639
128.405
85.1308
264.458
101.788
171.507
269.012
77.514
86.575
86.3753
77.4445
111.129
78.2382
149.884
74.2291
289.318
172.306
122.678
289.275
239.221
259.388
297.712
297.848
216.861
283.373
81.0598
201.244
270.981
80.7981
233.417
269.447
207.857
215.704
190.766
196.263
106.365
184.209
76.7808
82.2629
94.6717
102.59
116.441
89.5389
69.3191
87.6754
212.778
94.0764
154.147
181.691
94.7185
75.0599
78.7365
74.8093
92.9959
144.049
70.4901
93.1738
73.9797
126.882
171.328
105.311
138.526
210.98
89.0913
102.821
289.775
286.566
148.151
125.173
203.215
151.947
236.325
90.0581
117.623
71.6579
228.789
105.689
236.389
142.115
93.3068
204.569
170.177
131.941
84.7625
299.31
248.336
90.0829
149.676
109.871
197.916
281.762
158.417
264.367
224.403
143.224
89.0683
88.1875
61.8499
299.469
183.193
261.925
120.087
106.73
270.995
234.703
75.449
288.253
113.16
269.687
88.21
80.384
208.3
91.4171
271.258
77.9537
120.518
228.772
145.464
225.815
211.147
135.266
159.828
93.1674
113.357
93.3256
109.383
212.418
249.937
244.39
299.657
279.308
68.9898
78.446
89.3443
179.889
103.843
214.002
140.985
299.8
149.963
72.9637
84.7456
205.701
83.1325
147.986
259.559
202.779
107.292
240.096
278.122
88.1129
227.254
132.563
103.036
139.604
219.493
70.2178
113.5
272.354
268.119
238.298
204.854
299.937
125.891
92.2414
84.7696
158.084
174.121
237.037
90.5313
111.774
95.8386
101.513
219.152
280.913
94.8962
269.57
129.009
108.724
123.457
67.5874
86.118
166.124
82.5791
188.985
269.387
208.071
107.32
145.514
247.496
71.0197
68.6009
117.353
143.838
90.7496
135.056
145.524
75.4762
266.748
104.152
299.959
67.9751
273.775
176.905
234.539
131.175
95.293
269.193
225.237
264.325
77.379
117.136
127.356
200.84
72.231
163.337
113.751
94.9324
271.418
264.568
179.764
77.2785
100.341
81.1858
117.104
267.453
69.1382
141.873
268.596
214.811
204.476
226.725
268.82
86.4098
283.227
188.373
286.792
145.595
89.6263
82.3033
178.959
261.112
91.3327
192.907
229.79
141.812
144.802
105.485
239.516
276.043
94.4869
102.935
195.212
213.553
239.563
166.381
264.516
82.0151
67.7438
146.014
222.442
158.437
91.7104
299.786
89.5638
210.852
295.234
84.2285
190.034
224.443
115.246
118.309
66.064
64.5867
81.8586
231.632
68.226
174.052
70.8813
160.634
75.5958
220.109
88.2294
67.0286
109.085
168.506
182.962
145.011
112.785
110.664
86.2822
85.7675
80.1078
269.126
96.559
299.833
299.631
183.917
268.541
92.9975
70.4068
210.9
171.164
124.077
255.473