/*--------------------------------*- C++ -*----------------------------------*\
  =========                 |
  \\      /  F ield         | OpenFOAM: The Open Source CFD Toolbox
   \\    /   O peration     | Website:  https://openfoam.org
    \\  /    A nd           | Version:  8
     \\/     M anipulation  |
\*---------------------------------------------------------------------------*/
FoamFile
{
    version     2.0;
    format      ascii;
    class       volVectorField;
    location    "8e-05";
    object      U;
}
// * * * * * * * * * * * * * * * * * * * * * * * * * * * * * * * * * * * * * //

dimensions      [0 1 -1 0 0 0 0];

internalField   nonuniform List<vector> 
23640
(
(-686.267 2382.16 0)
(-308.967 2670.68 0)
(439.025 347.48 0)
(-12.9034 91.3689 0)
(436.555 2629.25 0)
(-368.914 1314.66 0)
(-139.662 2776.43 0)
(-193.538 2288.52 0)
(-261.38 2477.51 0)
(1784.61 721.366 0)
(-34.9489 426.538 0)
(945.558 2531.58 0)
(284.082 2639.3 0)
(462.917 2620.78 0)
(-741.546 785.745 0)
(-214.946 1206 0)
(1082.69 2385.65 0)
(-82.5034 1060.47 0)
(42.3125 741.711 0)
(-1404.79 2163.8 0)
(-85.7664 519.566 0)
(470.764 186.577 0)
(-82.8645 534.317 0)
(130.994 472.293 0)
(-364.667 2557.61 0)
(295.244 2727.1 0)
(-102.312 2129.31 0)
(801.539 2368.9 0)
(1225.27 2357.97 0)
(562.987 2462.74 0)
(141.181 2690.5 0)
(-1.50158 0.175415 0)
(-89.9236 514.844 0)
(-1296.39 2318.58 0)
(-1784.15 1663.25 0)
(-777.201 562.963 0)
(1041.34 2415.2 0)
(1059.89 2440.52 0)
(1151.98 578.969 0)
(89.0041 324.303 0)
(1374.06 2300.99 0)
(-257.116 2441.26 0)
(490.525 2624.86 0)
(-1378.12 834.344 0)
(-5.60625 47.2344 0)
(931.899 1709.12 0)
(584.328 2485.34 0)
(456.017 2639.71 0)
(1790.86 730.931 0)
(-113.658 2241.4 0)
(3.99553 7.04427 0)
(-52.0817 1030.65 0)
(-964.5 513.928 0)
(-720.496 2563.06 0)
(-11.2536 89.046 0)
(533.569 125.274 0)
(-708.092 1846.68 0)
(-278.92 2635.35 0)
(65.7275 2833.12 0)
(11.729 50.1835 0)
(104.704 2682.09 0)
(-583.368 1905.55 0)
(40.1882 224.501 0)
(-51.8286 987.862 0)
(95.2602 2806.74 0)
(-55.1658 994.619 0)
(-142.498 1153.84 0)
(-395.983 2553.67 0)
(90.593 1100.66 0)
(478.841 2631.8 0)
(70.9728 246.036 0)
(-1263.57 2368.87 0)
(-141.72 716.491 0)
(-883.121 2461.19 0)
(324.368 1273.7 0)
(-1.38443 0.940109 0)
(-182.962 32.5901 0)
(315.974 2639.14 0)
(42.5256 730.212 0)
(-36.238 244.669 0)
(858.357 1650.42 0)
(1669.93 1546.04 0)
(284.423 2718.38 0)
(286.723 2716.83 0)
(95.8326 2818.58 0)
(-1227.18 363.89 0)
(-54.4304 1039.25 0)
(85.5905 278.501 0)
(-161.615 604.566 0)
(-691.454 741.223 0)
(-176.613 2806.63 0)
(-278.755 2604.69 0)
(-1562.29 1260.53 0)
(-119.641 715.303 0)
(14.5652 1056.5 0)
(47.886 2610.24 0)
(-51.9026 960.482 0)
(614.812 212.741 0)
(-86.3094 2340.09 0)
(-1647.19 1025.3 0)
(1949.71 1195.38 0)
(-720.082 2558.5 0)
(130.028 433.426 0)
(1272.76 2359.83 0)
(1800 1657.84 0)
(1103.14 2408.4 0)
(39.2627 141.472 0)
(-1085.92 2370.74 0)
(-550.248 2637.79 0)
(-47.9552 2408.57 0)
(273.365 2688.86 0)
(-136.903 713.037 0)
(223.315 2625.61 0)
(1367.41 2349.51 0)
(1478.68 1147.58 0)
(-1449.82 2221.71 0)
(-740.748 695.533 0)
(-386.644 2687.16 0)
(-741.857 2372.79 0)
(534.263 2452.81 0)
(93.5963 317.836 0)
(-2.07535 12.889 0)
(580.046 261.747 0)
(5.58747 10.2533 0)
(980.188 2107.29 0)
(104.281 368.065 0)
(4.12995 6.0973 0)
(1760.75 1214.3 0)
(-364.734 1401.59 0)
(1245.8 2390.08 0)
(197.478 2420.16 0)
(1820.04 1510.59 0)
(204.674 2653.93 0)
(-676.405 2180.34 0)
(-1223.32 2365.76 0)
(64.1502 210.028 0)
(-70.3204 451.889 0)
(-386.53 2537.01 0)
(33.0956 438.647 0)
(-59.0095 907.486 0)
(-69.9855 2377.43 0)
(-701.484 1791.94 0)
(-149.247 733.475 0)
(-30.2465 424.352 0)
(168.661 712.409 0)
(-172.41 2523.29 0)
(-51.2926 375.144 0)
(84.8045 329.91 0)
(-197.331 2793.79 0)
(144.205 1014.36 0)
(-48.7484 2167.57 0)
(191.643 780.084 0)
(346.215 2706.49 0)
(-10.5054 164.644 0)
(1364.6 2036.41 0)
(-1315.34 2334.42 0)
(-126.462 2786.59 0)
(-520.828 2604.13 0)
(142.355 1315.16 0)
(-78.0067 2131.62 0)
(-557.265 608.74 0)
(-1209.88 447.106 0)
(-816.23 568.292 0)
(-68.194 1358.8 0)
(1482.91 2324.11 0)
(1530.72 2286.93 0)
(55.5289 189.97 0)
(-1345.62 1441.99 0)
(37.8642 138.15 0)
(1833.88 1513.65 0)
(463.301 2638.84 0)
(1501.2 1171.22 0)
(318.507 1425.31 0)
(-581.674 2631.62 0)
(44.8529 185.272 0)
(-45.6631 182.871 0)
(1257.98 2373.4 0)
(1491.94 1160.59 0)
(-36.4666 239.713 0)
(-379.656 2525.14 0)
(-4.86818 48.037 0)
(647.156 149.47 0)
(-392.256 2546.5 0)
(-895.083 2406.36 0)
(1235.1 2359.55 0)
(253.935 1501.69 0)
(-785.67 2218.13 0)
(-1685.35 1374.3 0)
(-17.1355 58.5916 0)
(-890.31 2388.31 0)
(-405.156 2242.14 0)
(57.8629 410.349 0)
(1.04826 16.4834 0)
(337.823 2716.14 0)
(954.092 2515.07 0)
(79.793 322.343 0)
(1806.26 1641.5 0)
(-597.797 1316.4 0)
(982.091 330.422 0)
(1255.24 1747.77 0)
(-9.12209 594.102 0)
(1363.97 988.915 0)
(1073.41 2422.93 0)
(-249.638 2434.89 0)
(-68.1182 671.442 0)
(125.524 2840.62 0)
(824.982 281.04 0)
(-87.0376 529.339 0)
(1741.21 1082.03 0)
(52.9062 189.694 0)
(455.054 2655.2 0)
(-426.441 2560.02 0)
(98.2268 2540.89 0)
(151.581 2837.82 0)
(212.528 439.497 0)
(-38.8324 2513.75 0)
(418.68 2594.83 0)
(-1361.27 2192.8 0)
(-196.377 1854.34 0)
(-1575.16 1269.35 0)
(20.7862 2563.56 0)
(49.7969 426.762 0)
(-15.2123 590.298 0)
(975.926 2518.48 0)
(-133.189 497.078 0)
(153.34 2649.33 0)
(-374.069 2718.05 0)
(-3.30771 10.3762 0)
(-1544.52 1199.38 0)
(-172.929 2804.9 0)
(-594.787 2409.61 0)
(-986.543 2514.7 0)
(1392.39 2139.21 0)
(-465.817 2599.43 0)
(-507.126 2622.49 0)
(1651.14 1581.47 0)
(74.2559 254.043 0)
(-36.3237 2514.15 0)
(-192.609 2792.73 0)
(1018.94 1482.6 0)
(1911.55 1229.9 0)
(-1246.92 1121.81 0)
(1392.87 2334.33 0)
(-246.982 2393.63 0)
(-12.6906 103.307 0)
(821.395 2561.35 0)
(313.599 2309.22 0)
(776.007 221.356 0)
(-2.96732 232.604 0)
(113.619 398.245 0)
(10.0227 46.1106 0)
(826.339 2604.61 0)
(586.774 2505.36 0)
(45.2547 182.279 0)
(51.8146 2852.87 0)
(87.3805 321.464 0)
(-819.825 345.269 0)
(-929.412 2511.85 0)
(-32.5526 118.311 0)
(-34.8915 124.507 0)
(-9.96379 61.7903 0)
(621.504 2611.13 0)
(1903.52 1328.44 0)
(-481.935 2650.59 0)
(1437.51 2082.95 0)
(489.523 2625.95 0)
(506.947 2166.18 0)
(-124.641 2273.59 0)
(52.4327 2850.68 0)
(33.168 1088.52 0)
(1846.19 1178.01 0)
(1461.41 2213.42 0)
(79.6389 256.579 0)
(-16.0476 57.479 0)
(1818.48 1158.56 0)
(-1203.16 2388.34 0)
(1252.4 2341.71 0)
(-2.2706 12.5299 0)
(9.78987 983.218 0)
(-604.288 2633.43 0)
(94.2795 355.619 0)
(1640.77 1738.38 0)
(305.545 1509.89 0)
(-24.0527 399.535 0)
(-288.927 1967.03 0)
(701.92 1845.07 0)
(22.8144 1968.74 0)
(564.623 966.006 0)
(-226.625 2680.38 0)
(-22.7817 406.065 0)
(-192.748 2553.79 0)
(-1036.7 2440.33 0)
(-60.0849 2529.93 0)
(-107.564 1693.9 0)
(33.9997 445.67 0)
(244.435 2411.13 0)
(1238.6 2413.72 0)
(-856.862 2453.9 0)
(294.041 2702.33 0)
(1031.99 2275.33 0)
(-1304.02 1450 0)
(-55.4579 967.215 0)
(-2.78828 11.0845 0)
(-234.569 2585.92 0)
(-73.6953 472.984 0)
(1337.19 2367.28 0)
(1743.58 1580.5 0)
(-983.182 1867.03 0)
(-10.0021 72.4296 0)
(-153.358 721.793 0)
(1015.98 2508.58 0)
(1792.7 1243.41 0)
(-44.1606 182.677 0)
(89.1352 731.509 0)
(-33.6783 604.355 0)
(565.134 2152.13 0)
(-1707.92 1402.9 0)
(-605.818 358.399 0)
(15.5279 1035.72 0)
(-296.344 1573.47 0)
(814.045 2153.44 0)
(-1192.18 2396.14 0)
(-1792.48 1627.53 0)
(790.155 2383.08 0)
(-1223.96 2373.62 0)
(-1898.4 1090.34 0)
(18.0621 62.0907 0)
(-156.39 2436.75 0)
(713.267 2031.3 0)
(2.05626 -0.485505 0)
(-345.92 1471.61 0)
(-245.272 2336.05 0)
(-918.252 2408.51 0)
(-613.734 2376.64 0)
(-19.3277 2451.79 0)
(-229.229 2587.66 0)
(846.865 213.536 0)
(1853.75 1226.4 0)
(220.716 2393.04 0)
(293.075 2703.31 0)
(-950.91 254.276 0)
(-168.222 826.279 0)
(1348.81 2050.21 0)
(3.55998 13.6309 0)
(81.3679 398.56 0)
(-64.2309 1094.66 0)
(-727.269 1932.39 0)
(858.095 2561.01 0)
(230.117 2645.57 0)
(1359.13 2184.35 0)
(-34.9601 126.845 0)
(-1928.34 1037.65 0)
(-936.279 2535.9 0)
(-356.627 2696.33 0)
(-1783.23 1659.76 0)
(1375.34 2419.98 0)
(-221.214 2198.32 0)
(-858.715 2543.93 0)
(43.2065 225.203 0)
(46.1517 421.64 0)
(-751.382 2262.84 0)
(-57.8063 493.542 0)
(-64.1544 913.69 0)
(1105.45 2204.18 0)
(-59.1041 2529.86 0)
(1559.18 1917.93 0)
(1507.15 2219.85 0)
(1888.18 1053.99 0)
(23.5932 731.149 0)
(-502.117 2470.53 0)
(-1683.41 1141.88 0)
(175.022 668.831 0)
(1043.36 2470.8 0)
(-33.308 595.118 0)
(977.02 2116.22 0)
(-937.406 2527.67 0)
(7.04278 31.5771 0)
(-1146.6 896.316 0)
(-151.172 2437.07 0)
(417.139 2183.59 0)
(138.089 730.773 0)
(182.254 698.884 0)
(-46.8856 2509.86 0)
(-160.943 841.909 0)
(-35.293 2432.72 0)
(-1278.37 2348.23 0)
(-1529.8 935.151 0)
(1582.51 2243.06 0)
(88.8193 333.822 0)
(-1512.24 2147.23 0)
(2.29398 1150.38 0)
(-363.231 1061.29 0)
(-307.793 53.3755 0)
(-1098.25 605.137 0)
(-1335.76 1720.82 0)
(117.596 425.71 0)
(1.72322 15.1048 0)
(1127.41 2355.96 0)
(615.649 2517.79 0)
(-910.155 1892.22 0)
(-1141 1331.79 0)
(46.7199 164.412 0)
(691.524 1675.75 0)
(1403.77 2298.13 0)
(371.779 2623.79 0)
(-294.331 2728.02 0)
(20.3873 88.8161 0)
(1146.35 2404.71 0)
(1181.07 914.84 0)
(137.915 1504.13 0)
(-575.203 1305.54 0)
(-5.72098 235.795 0)
(-40.9051 155.091 0)
(-394.718 2322.84 0)
(-46.6711 373.24 0)
(1302.83 2344.23 0)
(763.307 1833.83 0)
(-95.1697 2643.55 0)
(615.003 2116.87 0)
(1302 2252.65 0)
(-32.5296 120.211 0)
(9.85217 1134.84 0)
(397.094 2695.64 0)
(-518.344 1112.04 0)
(1872.74 796.971 0)
(-1324.67 2363.84 0)
(4.90702 11.9304 0)
(522.336 254.132 0)
(-60.611 487.087 0)
(28.6672 1810.44 0)
(1267.58 2187.95 0)
(2.61768 36.7386 0)
(-53.2885 194.522 0)
(-90.8734 546.77 0)
(-19.0839 2362.68 0)
(78.1394 395.07 0)
(-1633.43 1193.18 0)
(796.773 673.866 0)
(1211.19 1443.66 0)
(10.0752 39.4785 0)
(-635.441 2367.4 0)
(47.7862 222.383 0)
(586.558 388.032 0)
(-1765.56 730.918 0)
(-234.805 1704.84 0)
(-213.199 1785.75 0)
(-825.64 1900.25 0)
(1794.27 1153.83 0)
(18.9351 543.733 0)
(1897.32 1050.66 0)
(-0.18869 0.664596 0)
(-175.724 1327.82 0)
(42.9895 178.29 0)
(-418.781 1271.53 0)
(13.3877 1192.03 0)
(-1270.84 2330.21 0)
(-329.482 2715.81 0)
(1750.7 1577.18 0)
(-33.6184 117.119 0)
(1506.45 825.482 0)
(601.477 2129.44 0)
(-300.953 2042.56 0)
(741.717 2533.58 0)
(0.39154 -0.0399667 0)
(1051.15 795.263 0)
(541.898 2453.69 0)
(-1081.98 821.082 0)
(265.519 76.431 0)
(-1958.35 1066.35 0)
(-415.638 2235.91 0)
(145.183 2434.94 0)
(-381.311 2546.6 0)
(-8.59174 59.2392 0)
(1323.66 1348.01 0)
(1068.77 1711.64 0)
(-710.065 1814.63 0)
(436.627 2619.28 0)
(1.28546 -0.250816 0)
(1813.12 1236.97 0)
(-1.1864 8.04304 0)
(-178.982 2035.41 0)
(-1403.59 2073.23 0)
(-210.354 2555.35 0)
(-1798.68 768.376 0)
(671.47 955.183 0)
(1775.33 1008.25 0)
(-117.917 513.926 0)
(1477.34 1158.79 0)
(-133.084 2684.79 0)
(-618.485 2527.49 0)
(358.266 2196.67 0)
(-0.728457 9.87671 0)
(572.847 2579.43 0)
(109.495 390.499 0)
(-181.572 2463.4 0)
(-292.923 2728.34 0)
(-1600.45 1324.44 0)
(-414.77 1489.87 0)
(1595.07 1071.17 0)
(1032.98 2464.87 0)
(155.566 2607.2 0)
(-23.9584 289.232 0)
(-1338.08 2370.16 0)
(-189.242 2553.87 0)
(-52.2668 2590.38 0)
(51.1142 2856.53 0)
(-1338.78 1743.46 0)
(1070.99 2482.9 0)
(-1044.36 2438.22 0)
(449.961 2609.93 0)
(844.528 1734.92 0)
(817.872 2130.69 0)
(-1403.21 525.506 0)
(-1274.05 392.243 0)
(-95.1499 561.642 0)
(-571.356 2623.29 0)
(694.666 2550.53 0)
(995.576 2495.05 0)
(-234.541 2369.64 0)
(-33.0764 365.444 0)
(-543.958 1140.21 0)
(33.2253 1223.15 0)
(-0.0771792 0.263049 0)
(-561.543 572.594 0)
(-125.82 2695.55 0)
(271.343 2622.82 0)
(111.96 593.097 0)
(605.103 2202.02 0)
(133.613 723.61 0)
(33.994 2840.24 0)
(-346.746 2710.84 0)
(-133.293 501.214 0)
(1685.55 1359.93 0)
(-197.766 318.211 0)
(-609.774 161.797 0)
(-121.251 2636.61 0)
(-1058.48 567.458 0)
(1906.55 1317.04 0)
(-994.838 2453.33 0)
(771.766 2330.98 0)
(-7.58025 1263.73 0)
(-185.31 2581.12 0)
(-156.35 2459.2 0)
(399.397 2695.17 0)
(603.559 2565.83 0)
(482.8 2621.64 0)
(-566.084 601.506 0)
(166.615 675.979 0)
(446.779 2511.57 0)
(449.613 2515.69 0)
(1099.76 1464.78 0)
(-467.501 2604.27 0)
(-527.254 138.78 0)
(-1534.34 1193.65 0)
(1264.69 1427.46 0)
(-554.746 2595.02 0)
(289.966 2626.51 0)
(-1258.82 1112.58 0)
(-66.1287 456.68 0)
(42.7247 185.162 0)
(223.04 1258.46 0)
(-87.5723 369.729 0)
(-189.816 2566.98 0)
(1271.99 1721.76 0)
(-61.4415 859.866 0)
(-85.7784 548.026 0)
(293.946 1609.14 0)
(69.8491 634.899 0)
(1380.3 1356.58 0)
(1297.01 701.686 0)
(0.529369 0.594362 0)
(448.167 2639.88 0)
(-186.661 2463.71 0)
(-1181.12 2405.15 0)
(-533.162 2644.5 0)
(29.9923 734.411 0)
(631.384 296.708 0)
(-1260.75 376.742 0)
(1880.33 1369.49 0)
(705.917 2503.36 0)
(1.63955 35.1454 0)
(7.86112 2444.68 0)
(-853.754 2544.75 0)
(611.748 2189.65 0)
(86.6447 722.096 0)
(161.474 587.227 0)
(36.4128 1393.22 0)
(1871.17 1374.35 0)
(334.802 2727.23 0)
(64.8216 630.359 0)
(-16.3107 228.122 0)
(374.974 2488.86 0)
(1351.43 2337.53 0)
(-208.03 2369.97 0)
(49.9695 2853.64 0)
(20.712 1020.04 0)
(-1366.44 2186.39 0)
(-752.556 2136.05 0)
(-395.119 2543.04 0)
(-1953.12 1030.37 0)
(-42.5437 377.963 0)
(18.5905 535.869 0)
(-31.4356 113.36 0)
(1747.94 1294.15 0)
(-508.289 2468.69 0)
(1105.55 308.927 0)
(-1250.19 1661.82 0)
(949.459 2046.33 0)
(-508.696 2632.9 0)
(116.84 598.156 0)
(542.234 2484.33 0)
(-46.3358 2148.89 0)
(795.992 2569.28 0)
(-238.573 2451.56 0)
(-392.386 1366.38 0)
(-1322.28 1682.91 0)
(-625.239 230.406 0)
(-48.1216 2522.79 0)
(642.078 2575.49 0)
(6.07015 10.1377 0)
(-64.3681 678.718 0)
(1237.43 2376.77 0)
(-228.685 2583.91 0)
(-15.8725 223.215 0)
(-491.376 2594.39 0)
(27.1845 1063.59 0)
(867.327 2574.71 0)
(-38.4815 580.864 0)
(-268.519 2581.95 0)
(585.578 385.111 0)
(1583.15 2001.12 0)
(93.6168 2153.97 0)
(-1117.93 1078.63 0)
(-404.121 2525.83 0)
(-1589.78 1503.13 0)
(-11.1682 72.7704 0)
(47.4794 2609.63 0)
(869.667 2565.18 0)
(1132.49 2355.49 0)
(772.843 668.791 0)
(-223.718 2383.67 0)
(469.225 211.833 0)
(-88.9953 362.194 0)
(97.8679 2663.68 0)
(769.225 199.357 0)
(9.08989 2452.43 0)
(-38.8602 589.999 0)
(-851.386 2097.66 0)
(-1285.22 2337.42 0)
(860.483 2559.06 0)
(-1432.58 1170.37 0)
(-3.22248 11.422 0)
(171.946 698.972 0)
(-117.987 2788.21 0)
(-1390.42 2174.18 0)
(-16.8075 57.9574 0)
(1624.79 1068.15 0)
(-116.527 507.15 0)
(435.366 2610.73 0)
(57.3467 1142.76 0)
(-183.365 2567.58 0)
(-1058.66 1722.18 0)
(-1453.69 2213.51 0)
(-1878.87 1065.71 0)
(205.357 70.7882 0)
(-214.152 57.7371 0)
(686.039 2032.43 0)
(3.30213 15.636 0)
(168.365 655.379 0)
(-255.143 1691.77 0)
(-2.99732 11.339 0)
(3.56334 2430.54 0)
(-376.729 2717.14 0)
(-1091.74 1103.8 0)
(-5.60432 957.564 0)
(742.372 2529.27 0)
(-167.505 2636.35 0)
(398.644 2637.44 0)
(-561.158 2555.82 0)
(-23.5374 284.201 0)
(8.96282 41.2774 0)
(15.0847 2456.73 0)
(288.974 2643.63 0)
(1447.22 845.384 0)
(-508.44 2622.8 0)
(-1301.35 2307.45 0)
(-19.1473 85.3841 0)
(-1437.98 2234.13 0)
(922.609 1634.18 0)
(3.02556 13.7266 0)
(1233.99 2357.57 0)
(715.543 168.859 0)
(-40.1 1214.7 0)
(463.942 2606.29 0)
(49.9529 1248.73 0)
(1214.06 2235.89 0)
(534.102 938.392 0)
(844.068 2421.65 0)
(110.887 405.572 0)
(151.739 2649.22 0)
(-0.00522617 0.0153177 0)
(-5.70379 975.569 0)
(1452 2189.03 0)
(106.275 423.285 0)
(1185.86 2331.85 0)
(-246.873 2577.55 0)
(87.0193 316 0)
(1589.7 1426.38 0)
(-80.2539 302.923 0)
(1239.18 1868.29 0)
(-118.868 703.563 0)
(98.4432 348.555 0)
(1788.53 1040.49 0)
(-1705.8 1572.52 0)
(-453.88 141.55 0)
(-678.969 589.968 0)
(450.771 1131.71 0)
(-555.178 2696.79 0)
(-95.5726 553.439 0)
(482.657 299.838 0)
(1889.72 1488.76 0)
(-699.01 1843.41 0)
(1835.91 1205.3 0)
(1620.78 1634.06 0)
(-1182.19 2181.95 0)
(289.564 341.079 0)
(-1476.94 2078.09 0)
(844.177 2573.59 0)
(-1723.5 1831.34 0)
(-12.7271 114.42 0)
(70.5906 2468.58 0)
(-1040.07 2475.79 0)
(42.4051 282.723 0)
(-98.4362 368.994 0)
(1303.7 2287.77 0)
(230.527 2645.76 0)
(144.375 81.6925 0)
(1302.95 2331.4 0)
(38.6357 273.195 0)
(19.7941 2464.88 0)
(-32.3071 1510.02 0)
(-556.458 2623.2 0)
(36.5778 268.565 0)
(-1804.71 991.45 0)
(1249.43 2295.55 0)
(265.339 1388.06 0)
(-928.331 2519.9 0)
(170.387 847.615 0)
(1058.76 2502.23 0)
(-568.593 2524.73 0)
(152.187 1449.57 0)
(1496.89 2227.58 0)
(-64.7423 2478.93 0)
(-566.998 2532.48 0)
(368.625 2557.45 0)
(2.08983 0.0125094 0)
(190.063 2232.17 0)
(-1098.7 2356.54 0)
(-44.5308 1066.34 0)
(77.3949 283.367 0)
(-532.611 2644.19 0)
(-19.6761 2844.82 0)
(-78.8803 1242.07 0)
(-48.7129 2519.07 0)
(-22.58 96.3249 0)
(460.131 169.002 0)
(-28.7983 369.328 0)
(1029.13 2391.81 0)
(125.973 830.225 0)
(-1177.63 2199.3 0)
(623.902 1084.57 0)
(566.189 2529.11 0)
(-1006.98 1722.07 0)
(369.982 2611.66 0)
(157.2 569.748 0)
(433.143 2611.8 0)
(-42.9244 157.036 0)
(32.5439 2482.68 0)
(-15.4316 1192.88 0)
(-942.557 337.619 0)
(-1808.33 1411.84 0)
(6.51844 7.98529 0)
(705.743 375.383 0)
(-1023.96 398.523 0)
(593.532 244.681 0)
(-0.198099 11.9421 0)
(-889.985 2094.46 0)
(1302.1 2356.49 0)
(-1009.62 2322.12 0)
(96.5012 2637.44 0)
(1396.6 1438.09 0)
(-923.734 690.5 0)
(167.845 759.48 0)
(-220.98 2586.6 0)
(1643.17 1570.86 0)
(112.955 421.731 0)
(1.56351 580.402 0)
(-49.1526 250.56 0)
(926.261 2366.22 0)
(-84.2365 306.792 0)
(-184.474 2348.72 0)
(-777.17 1695.56 0)
(-207.495 2476.71 0)
(273 2688.08 0)
(1918.5 1093.31 0)
(15.1916 53.0639 0)
(-544.962 2681.55 0)
(79.6029 721.076 0)
(-60.1583 324.56 0)
(-611.551 2538.09 0)
(-1272.78 504.203 0)
(129.903 509.523 0)
(-454.439 2605.15 0)
(21.5119 88.78 0)
(1205.67 376.495 0)
(586.543 2180.15 0)
(-273.85 2775.15 0)
(-183.123 595.117 0)
(-673.995 742.685 0)
(-615.462 2595.7 0)
(-28.3589 2471.43 0)
(139.133 40.7689 0)
(120.017 404.649 0)
(757.367 2373.83 0)
(260.321 196.275 0)
(85.283 321.244 0)
(347.054 2412.79 0)
(896.093 2516.54 0)
(1826.01 1236.38 0)
(71.2705 1238.43 0)
(-459.479 2575.61 0)
(194.05 2230.84 0)
(1140.92 2343.82 0)
(35.1512 960.913 0)
(348.529 2618.48 0)
(-20.6583 2479.42 0)
(303.548 1423.61 0)
(-187.208 1685.49 0)
(-1004.33 784.879 0)
(-497.266 2577.47 0)
(46.3024 956.333 0)
(-458.649 2148.67 0)
(-2.74713 470.41 0)
(293.335 2502.11 0)
(1302.98 2283.69 0)
(-1279.25 2337.15 0)
(-11.0453 160.762 0)
(-458.831 2578.87 0)
(72.0821 283.344 0)
(420.897 2626.38 0)
(303.543 2505.39 0)
(-88.8293 2664.98 0)
(-968.773 952.231 0)
(426.89 2220.45 0)
(-22.186 779.104 0)
(0.826873 1.67783 0)
(114.944 2139.84 0)
(-1712.78 1537.39 0)
(-206.218 2340.77 0)
(-1920.07 1247.09 0)
(1168.94 1884.12 0)
(681.2 2427.26 0)
(-452.01 2540.71 0)
(41.7901 141.674 0)
(-485.467 1930.96 0)
(413.572 2629.58 0)
(-1.37592 477.536 0)
(-1099.02 2412.31 0)
(-3.59675 31.748 0)
(652.481 510.017 0)
(-1836.4 1122.28 0)
(-80.1684 298.094 0)
(48.3594 230.573 0)
(-57.5035 465.731 0)
(0.681417 2.67894 0)
(-1245.67 2319.94 0)
(21.5422 70.0795 0)
(-967.532 1432.24 0)
(1223.44 2324.27 0)
(-1516.58 2143.1 0)
(-1829.7 1428.39 0)
(-474.59 2537.44 0)
(50.9859 962.83 0)
(114.7 2685.3 0)
(-1778 1001.84 0)
(623.918 2016.34 0)
(-39.1267 247.652 0)
(393.051 2373.28 0)
(-19.7101 88.5199 0)
(-371.922 2131.39 0)
(804.924 330.924 0)
(-562.309 2242.33 0)
(-828.094 2572.73 0)
(-673.226 342.833 0)
(-50.7915 180.357 0)
(1383.07 2048.02 0)
(591.301 137.257 0)
(24.1623 1316.84 0)
(-1375.39 842.032 0)
(136.73 518.736 0)
(-28.1021 609.436 0)
(995.276 410.267 0)
(474.671 2615.09 0)
(115.506 2685.58 0)
(-45.8698 1222.9 0)
(608.125 398.165 0)
(1636.25 1714.01 0)
(30.9901 984.619 0)
(-202.192 2330.4 0)
(-1383.48 2320.95 0)
(-1644.34 1282.7 0)
(-1515.09 2113.05 0)
(1827.25 760.318 0)
(-1708.21 1646.2 0)
(15.8831 55.5653 0)
(252.502 2585.36 0)
(412.913 1858.3 0)
(-38.6431 144.725 0)
(-69.5123 646.178 0)
(43.4454 313.547 0)
(-346.222 650.139 0)
(-168.64 811.147 0)
(561.625 2472.03 0)
(89.5383 325.298 0)
(1336.99 2358.7 0)
(796.402 541.547 0)
(1008.68 2493.41 0)
(51.7932 2460.23 0)
(-1326.41 544.012 0)
(2.90798 5.34952 0)
(38.9625 968.582 0)
(-125.236 718.879 0)
(-500.998 450.988 0)
(-1729.18 1857.88 0)
(-8.14553 55.8949 0)
(1566.03 1666.72 0)
(-590.598 540.668 0)
(154.794 2603.43 0)
(29.679 2409.64 0)
(20.4953 264.593 0)
(-958.34 290.313 0)
(1533.26 2139.23 0)
(1285.73 446.484 0)
(-377.479 1129.79 0)
(40.7027 309.725 0)
(928.306 1835.37 0)
(-76.0969 311.31 0)
(1.4023 1195.72 0)
(1004.18 2492.93 0)
(757.411 2566.39 0)
(1185.97 2423.97 0)
(48.9748 431.419 0)
(-1266.49 2325.85 0)
(-528.131 439.766 0)
(12.7991 2712.22 0)
(-467.931 2537.68 0)
(44.7408 155.193 0)
(862.978 353.402 0)
(619.612 2643.01 0)
(-1258.64 2324.89 0)
(-1398.75 1835.37 0)
(-148.252 2824.94 0)
(-79.3018 667.12 0)
(624.147 2175.5 0)
(-858.037 2579.95 0)
(-29.0178 1155.55 0)
(877.539 2601.36 0)
(-15.5057 54.7514 0)
(-108.656 2818.73 0)
(438.415 2714.17 0)
(23.7443 529.869 0)
(722.69 2415.71 0)
(54.9559 415.917 0)
(-29.8096 2486.22 0)
(829.09 351.484 0)
(455.191 2610.56 0)
(-1596.27 2077.22 0)
(-599.051 440.36 0)
(307.79 2512.97 0)
(60.5588 258.343 0)
(-579.354 208.446 0)
(-344.653 2707.5 0)
(-560.723 2624.52 0)
(897.335 2565.4 0)
(295.147 2727.19 0)
(137.47 709.435 0)
(1298.59 872.706 0)
(619.928 2544.32 0)
(-101.391 382.05 0)
(-30.2569 747.143 0)
(-702.069 2249.53 0)
(-21.3957 96.4433 0)
(267.704 2442.46 0)
(-1607.2 2076.72 0)
(78.454 293.183 0)
(-122.332 2493.1 0)
(12.4472 46.8776 0)
(67.0777 2835.69 0)
(-61.7375 2400.73 0)
(572.324 1110.3 0)
(636.603 1911.83 0)
(597.558 2267.21 0)
(-10.679 1178.3 0)
(-875.958 2389.85 0)
(-539.193 648.813 0)
(-660.673 1907.02 0)
(-1738.36 1336.66 0)
(-1002.73 2462.52 0)
(-734.964 177.197 0)
(-231.438 111.718 0)
(1508.83 2017.15 0)
(-105.609 2585.26 0)
(1074.59 2422.4 0)
(-166.947 2780.7 0)
(112.145 409.046 0)
(700.758 1645.56 0)
(128.184 2024.38 0)
(-333.939 2771.27 0)
(-1348.76 2270.86 0)
(149.525 40.6934 0)
(78.3335 710.523 0)
(-2.18403 15.1919 0)
(1508.17 1836.23 0)
(109.963 391.937 0)
(970.974 2266.29 0)
(1449.6 1907.31 0)
(-208.4 2704.78 0)
(-30.6133 114.471 0)
(-187.356 735.884 0)
(723.096 2642.97 0)
(-68.1145 834.499 0)
(1357.62 2066.82 0)
(95.2391 2149.14 0)
(1306.95 2243.4 0)
(1146.74 2353.27 0)
(348.225 2519.54 0)
(-72.3265 2651.73 0)
(-709.938 837.59 0)
(36.3147 2534.44 0)
(-600.358 2538.42 0)
(-596.568 2317.61 0)
(-74.3877 317.257 0)
(88.4138 290.072 0)
(-289.033 2775.95 0)
(1182.38 2348.78 0)
(1174.11 1628.71 0)
(767.582 2367.04 0)
(742.495 1802.14 0)
(-3.08442 29.6175 0)
(-1383.08 1800.01 0)
(266.378 2625.09 0)
(788.031 2589.58 0)
(3.45525 39.7098 0)
(-108.099 396.716 0)
(134.506 702.397 0)
(-451.008 2535.64 0)
(-45.9423 1074.41 0)
(298.565 2444.34 0)
(-139.542 58.9448 0)
(565.629 2529.17 0)
(-289.391 1670.25 0)
(-135.918 512.798 0)
(1137.82 2127.59 0)
(-8.65188 221.891 0)
(-130.182 2736.93 0)
(730.698 1870.52 0)
(-1506.33 1187.9 0)
(906.623 1951.9 0)
(-357.934 1514.24 0)
(-297.289 640.54 0)
(-55.1106 197.134 0)
(-1563.43 2013.32 0)
(-1716.6 691.3 0)
(-876.203 1400.09 0)
(1086.33 1443.27 0)
(223.777 2395.41 0)
(-528.501 2211.33 0)
(13.7449 2702.14 0)
(20.2837 2707.03 0)
(115.018 406.606 0)
(-526.982 2612.75 0)
(-1060.17 606.063 0)
(-1828.28 1527.83 0)
(379.146 1691.48 0)
(255.934 77.8174 0)
(-695.237 679.14 0)
(-1951.98 1073.38 0)
(27.3641 702.398 0)
(54.3081 180.767 0)
(-1459.72 2208.87 0)
(838.654 2371.18 0)
(358.923 2483.58 0)
(554.253 2539.08 0)
(1138.18 1791.88 0)
(1432.18 1255.89 0)
(322.435 2566.21 0)
(-497.34 2576.8 0)
(-688 2539.52 0)
(501.348 417.862 0)
(502.998 2712.65 0)
(-63.1988 2401.95 0)
(-1294.02 1124.62 0)
(1089.18 486.299 0)
(-13.99 124.643 0)
(1130.53 2449.39 0)
(80.0152 2481.34 0)
(-92.3127 489.896 0)
(1203.43 2016.44 0)
(45.2409 2503.26 0)
(678.631 1756.77 0)
(168.886 740.072 0)
(-132.245 2189.75 0)
(344.355 2661.87 0)
(344.532 2658.28 0)
(286.368 2436.56 0)
(-169.157 2543.87 0)
(1195.12 1724.35 0)
(169.493 1481.13 0)
(-637.965 157.641 0)
(546.721 2376.9 0)
(51.6131 184.776 0)
(472.293 2613.76 0)
(809.71 2068.66 0)
(-1127.69 2338.58 0)
(746.016 2554.08 0)
(-2.91976 10.2149 0)
(24.5066 2588.97 0)
(1025.19 2399.24 0)
(25.1361 2588.84 0)
(-3.38328 42.9185 0)
(-123.617 693.351 0)
(-1033.27 335.287 0)
(-999.787 342.069 0)
(43.8309 175.804 0)
(0.00160958 0.00511645 0)
(-1148.47 2324.17 0)
(1597.21 1413.69 0)
(156.472 2320.83 0)
(634.055 163.194 0)
(-1314.5 2238.52 0)
(4.89542 974.74 0)
(982.294 281.152 0)
(1523.38 2284.19 0)
(55.5254 404.941 0)
(12.6505 1978.37 0)
(-1752.36 1085.1 0)
(-15.1326 127.56 0)
(-26.7076 92.9917 0)
(1317.5 2145.19 0)
(-418.207 1758.6 0)
(-777.906 1601.98 0)
(-1092.03 2430.72 0)
(-254.669 2470.07 0)
(65.3591 2063.85 0)
(-1297.95 2338.01 0)
(913.365 2533.43 0)
(-431.846 1530.35 0)
(-136.966 503.298 0)
(205.686 2419.8 0)
(-70.4516 478.587 0)
(-1479.72 2204.92 0)
(1407.89 469.385 0)
(102.842 979.153 0)
(1069.12 2450.69 0)
(-1959.82 1056.88 0)
(-1567.56 1890.69 0)
(131.88 817.75 0)
(-164.46 611.585 0)
(-239.66 2576.12 0)
(91.1874 1919.55 0)
(-382.089 2225.82 0)
(-1221.93 401.645 0)
(-1713.49 1645.43 0)
(-596.296 183.339 0)
(-1578.46 602.85 0)
(1739.59 946.161 0)
(-38.7035 2592.58 0)
(-121.909 682.289 0)
(-406.729 2323.15 0)
(-404.736 2574.14 0)
(-843.658 2359.13 0)
(78.7525 741.06 0)
(-70.7408 655.208 0)
(1107.09 2462.23 0)
(1165.44 2320.02 0)
(-78.526 613.58 0)
(1071.46 1432.76 0)
(-1375.69 2311.22 0)
(-117.13 432.267 0)
(669.873 2504.06 0)
(-159.881 864.341 0)
(499.94 2478.28 0)
(-99.299 1231.99 0)
(160.741 2317.41 0)
(477.644 2558.43 0)
(-834.202 2614.66 0)
(1086.15 2482.59 0)
(0.275714 0.330554 0)
(42.4523 1900.51 0)
(-37.6498 375.216 0)
(-480.46 2614.43 0)
(-404.571 2229.86 0)
(-37.5565 368.338 0)
(-317.215 2661.85 0)
(1198.17 2372 0)
(553.141 2360.41 0)
(-1483.74 512.514 0)
(-108.381 392.506 0)
(-747.973 198.072 0)
(48.4991 399.421 0)
(1393.19 2331.04 0)
(-360.824 2661.01 0)
(78.8463 2476.05 0)
(353.619 2599.29 0)
(-828.119 2126.69 0)
(852.184 2603.44 0)
(-110.362 2691.75 0)
(64.4341 1466.65 0)
(622.723 2543.99 0)
(-1256.16 1031.81 0)
(-463.69 2633.98 0)
(-1460.2 512.236 0)
(429.129 2511.96 0)
(-18.1268 1138.32 0)
(47.9906 443.242 0)
(-1026.26 2447.05 0)
(18.76 260.163 0)
(285.489 1406.92 0)
(-6.99447 53.2715 0)
(-1563.02 1898.96 0)
(627.116 529.428 0)
(-489.404 2713.29 0)
(-68.1841 819.999 0)
(510.379 2432.91 0)
(-427.551 317.284 0)
(505.578 2712.25 0)
(-856.391 2425.19 0)
(-600.988 2628.76 0)
(-1443.75 1034.35 0)
(138.534 2513.87 0)
(-584.607 2629.57 0)
(1880.14 1508.1 0)
(310.06 1426.44 0)
(38.3874 136.83 0)
(-267.991 656.051 0)
(-1679.06 1490.84 0)
(-174.586 2528.43 0)
(107.006 1022.5 0)
(116.726 1931.76 0)
(-600.156 133.407 0)
(0.0782165 0.727419 0)
(-591.263 413.457 0)
(1523.61 1989.25 0)
(-1106.96 2346.9 0)
(1307.81 396.459 0)
(66.2659 2363.18 0)
(380.438 2671.3 0)
(774.424 1845.96 0)
(778.029 2562.81 0)
(563.966 2175.02 0)
(-22.7723 361.098 0)
(-287.28 1902.08 0)
(162.7 856.136 0)
(94.3255 1928.14 0)
(1686.31 1642.95 0)
(-192.674 2582.77 0)
(197.723 2709.2 0)
(474.486 109.229 0)
(-1242.82 2250.84 0)
(-193.399 2553.07 0)
(57.2464 196.544 0)
(-1251.42 688.067 0)
(-253.95 110.107 0)
(-521.931 499.315 0)
(-165.76 2491.92 0)
(-62.5891 309.762 0)
(325.243 1675.24 0)
(40.3913 366.459 0)
(292.161 2462.62 0)
(119.05 2605.27 0)
(-153.712 334.7 0)
(30.3174 1103.36 0)
(-1451.6 2228.78 0)
(-14.19 484.975 0)
(446.829 522.475 0)
(-95.5864 2643.07 0)
(662.889 2580.9 0)
(24.7601 2683.16 0)
(144.642 108.177 0)
(-383.12 2279.78 0)
(1297.94 2343.57 0)
(534.473 782.418 0)
(-1698.5 682.161 0)
(427.149 2511.97 0)
(-813.865 247.476 0)
(-412.154 2264.57 0)
(68.1373 753.539 0)
(-327.375 2730.5 0)
(-1033.39 2454.65 0)
(-72.2554 2504.12 0)
(-811.837 2638.08 0)
(576.901 2605.9 0)
(1117.93 530.011 0)
(242.897 2680.94 0)
(-776.259 2553.49 0)
(180.471 2530.76 0)
(0.103313 0.19234 0)
(-1924.38 1003.15 0)
(-302.809 1765.29 0)
(-1768 1695.13 0)
(75.5891 750.485 0)
(43.6369 441.571 0)
(-63.605 326.063 0)
(362.295 2496.98 0)
(1594.71 582.794 0)
(139.602 2427.64 0)
(-21.1067 595.967 0)
(562.4 2723.67 0)
(39.3747 2602.39 0)
(-715.416 2537.1 0)
(1722.8 1872.56 0)
(-1550.81 1928.72 0)
(-1290.42 2335.36 0)
(1475.76 1983.79 0)
(1579.85 2257.24 0)
(858.116 1713.92 0)
(-1278.64 2301.05 0)
(85.833 331.986 0)
(-1173.78 1282.43 0)
(1264.69 2123.2 0)
(494.335 2578.74 0)
(-1078.91 2511.57 0)
(-222.866 2015.08 0)
(1314.84 2367.42 0)
(-39.3316 144.209 0)
(357.989 2496.1 0)
(1261.6 1598.7 0)
(-1071.34 2494.56 0)
(-43.2375 239.587 0)
(49.2618 219.422 0)
(-1197.13 2351.76 0)
(1596.23 2066.26 0)
(-21.6094 2624.07 0)
(1327.18 1363.62 0)
(1130.99 2355.63 0)
(-1838.77 1502.8 0)
(-1650.88 1708.81 0)
(-11.0205 480.036 0)
(1867.33 802.701 0)
(-40.1402 184.133 0)
(934.853 259.819 0)
(-1244.46 2330.95 0)
(-488.634 2649.5 0)
(1844.29 1605.12 0)
(1318.71 2238.7 0)
(2.06645 -0.524797 0)
(-70.3481 242.755 0)
(-328.958 590.231 0)
(-1583.94 1335.25 0)
(-1758.63 1481.86 0)
(-576.778 215.586 0)
(159.838 705.816 0)
(-27.4675 2668.96 0)
(239.404 2767.45 0)
(1634.44 1998.92 0)
(1139.64 709.907 0)
(3.33253 4.75252 0)
(-218.056 2514.92 0)
(-22.5883 113.368 0)
(861.486 2599.32 0)
(1308.55 2268.74 0)
(1272.5 2334.06 0)
(-39.5311 2472.57 0)
(1095.27 2456.39 0)
(813.222 2103.6 0)
(1207.26 356.477 0)
(62.3246 747.333 0)
(-67.0312 249.417 0)
(-444.84 122.008 0)
(-1472.63 1992.83 0)
(-112.425 2507.44 0)
(88.2663 2145.31 0)
(-49.2408 2698.44 0)
(-777.569 1845.66 0)
(1848.85 991.903 0)
(-1456.48 1291.09 0)
(1721.13 1891.47 0)
(882.234 1978.48 0)
(-20.2885 330.631 0)
(575.424 2028.43 0)
(177.923 2718.14 0)
(-1209.25 2385.13 0)
(-331.038 1168.99 0)
(-1377.55 819.93 0)
(1659.25 1261.54 0)
(776.882 2615.8 0)
(1026.59 2243.35 0)
(-228.604 2086.94 0)
(619.628 2524.27 0)
(858.922 1675.48 0)
(722.899 2224.19 0)
(1369.19 2067.61 0)
(34.7785 427.643 0)
(-152.221 548.699 0)
(-169.444 903.106 0)
(159.729 610.565 0)
(1472.05 2207.62 0)
(36.5447 364.286 0)
(18.2027 1066.7 0)
(623.172 682.961 0)
(12.0828 2453.89 0)
(1285.8 2390.28 0)
(-889.933 414.305 0)
(1619.08 1795.26 0)
(-80.237 289.339 0)
(868.151 2552.68 0)
(1027.93 2440.15 0)
(-681.635 2687.08 0)
(1817.63 1615.07 0)
(489.144 2596.4 0)
(50.428 405.048 0)
(-806.98 2471.31 0)
(1322.44 1732.05 0)
(-39.1127 186.513 0)
(195.733 1558.74 0)
(15.5049 707.409 0)
(541.755 1103.74 0)
(1650.04 1936.93 0)
(-155.815 1293.93 0)
(-1084.29 2243.09 0)
(-503.006 2603.45 0)
(-338.79 2612.78 0)
(-809.869 2520.76 0)
(1087.06 336.736 0)
(-966.294 2434.09 0)
(469.807 117.691 0)
(-533.78 258.812 0)
(-894.315 2421.21 0)
(-75.0542 639.243 0)
(-1391.15 2290.65 0)
(12.6749 1846.24 0)
(169.13 2632.25 0)
(1433.38 1306.02 0)
(-195.777 996.456 0)
(786.483 1773.07 0)
(-1579.4 1249.06 0)