# p  FACE_DATA 23640
#  x  y  z  p
-0.00296834 0.0159323 0 1823.41
0.000794309 0.0100339 0 1686.37
0.00690979 0.0130745 0 53.5016
0.000158008 0.0018211 0 1.13773e+006
-0.000662165 0.0113619 0 2781.31
-0.00203768 0.00587959 0 16566.5
-0.000220137 0.00748479 0 1635.65
0.00214531 0.0125841 0 5448.79
-0.00164167 0.00702341 0 7199.39
0.00020958 0.00306993 0 14520.8
4.59799e-005 0.00273939 0 1.04936e+006
0.00075606 0.00524313 0 3588.6
0.00107075 0.0257944 0 3217.17
-0.000458708 0.0115994 0 2219.04
-0.000900467 0.00350322 0 25298.1
-0.00222355 0.00655891 0 14976.5
0.00442703 0.0182294 0 779.694
7.09705e-005 0.00299924 0 703386
-2.45517e-005 0.00292714 0 902430
-0.000543852 0.00394831 0 9422.34
7.98376e-005 0.00283498 0 1.00938e+006
0.00510868 0.0124654 0 34.966
7.37866e-005 0.00284217 0 1.00308e+006
-0.000122136 0.00287943 0 992152
0.00117211 0.0120328 0 3534.63
0.000340217 0.00636002 0 2506.7
-1.62375e-005 0.00331413 0 83214.2
0.000288499 0.00391811 0 13633.2
0.00604323 0.0215883 0 390.77
0.0015748 0.0199438 0 2891.01
0.000642306 0.0286533 0 3527.82
-0.000788091 0.000235815 0 1.41083e+006
8.45076e-005 0.00283429 0 1.01082e+006
-0.000766033 0.00453527 0 4862.85
-0.000556446 0.00360452 0 9604.62
-0.000694613 0.00330261 0 23130
0.00425461 0.0181246 0 789.703
0.00563158 0.0299784 0 731.142
0.00374311 0.0125452 0 137.658
-0.000168184 0.00269727 0 1.07506e+006
0.00100487 0.00483203 0 3700.33
-0.00170325 0.00704586 0 8100.18
-0.00047461 0.0123053 0 2500.45
-0.00401905 0.0129379 0 114.453
0.000128446 0.00148328 0 1.14458e+006
0.000108141 0.00315803 0 114832
0.00299545 0.0176096 0 1690.05
0.00122698 0.00708374 0 1754.82
0.000214903 0.00307399 0 14026.8
0.00225142 0.0126586 0 5729.72
0.000204708 0.00068009 0 1.27752e+006
4.25297e-005 0.00299727 0 728974
-0.000477288 0.00315875 0 19458.5
-0.00378992 0.02149 0 779.628
0.000139812 0.00181138 0 1.1379e+006
0.000208917 0.00302796 0 12209.4
-0.00160791 0.0049468 0 17616.7
0.000941143 0.00995448 0 2932.34
8.9442e-006 0.010956 0 787.874
-0.000434056 0.00133506 0 1.15075e+006
0.000566946 0.0289715 0 3577.86
-7.40414e-005 0.003214 0 119267
-0.000145493 0.00239699 0 1.11301e+006
3.42483e-005 0.00298986 0 759571
0.000575544 0.00987125 0 911.204
3.71363e-005 0.00299095 0 755105
-0.00247102 0.00772987 0 12448.5
0.00096928 0.0118325 0 3258.99
-9.22697e-005 0.00299969 0 653144
-0.000570617 0.0122505 0 2657.27
-0.000211411 0.00254812 0 1.10298e+006
-0.000765289 0.00457715 0 4800.82
8.13068e-005 0.00294139 0 905143
-0.00437678 0.0203082 0 668.69
0.00226862 0.00661101 0 15066.2
-0.000832194 0.000220534 0 1.40233e+006
-0.000164868 0.00301134 0 12131.4
0.0012393 0.0259768 0 3297.26
-2.48279e-005 0.00292318 0 909453
0.000116572 0.00245177 0 1.10697e+006
9.77655e-005 0.00313112 0 142472
0.000279024 0.00328636 0 26945.6
-5.75605e-005 0.0116355 0 1028.97
-7.47936e-005 0.0117342 0 1019.42
0.000518168 0.00993111 0 879.465
-0.000154608 0.0030256 0 12211.5
4.53443e-005 0.00299839 0 724545
-0.000161071 0.0027724 0 1.05253e+006
0.000104836 0.00293916 0 924908
-0.00100104 0.00361077 0 26519.8
-0.000510005 0.00921774 0 983.89
0.00100295 0.0100141 0 3332.54
-0.000646084 0.00336418 0 12607.1
6.96906e-005 0.00293287 0 909327
-1.67264e-005 0.00300289 0 715496
0.000173509 0.0227352 0 5390.94
3.17037e-005 0.00298455 0 776157
0.000312244 0.00306502 0 15918.5
-0.00212604 0.00906512 0 7943.85
-0.00049218 0.00322389 0 12626.2
0.000341345 0.00323843 0 15953.9
-0.00385942 0.0216496 0 751.326
-0.000125834 0.0028813 0 991951
0.00524627 0.0255212 0 571.949
0.000713781 0.0036837 0 6813.01
0.00601727 0.0299149 0 670.617
-0.000344095 0.00203632 0 1.13708e+006
-0.0047341 0.0239481 0 521.414
-0.000460773 0.00539436 0 3709.39
-0.00196148 0.00905338 0 7284.77
0.00143807 0.0303782 0 3119.88
7.94637e-005 0.00293894 0 907669
0.00013473 0.00481908 0 5689.81
0.00105264 0.00484794 0 3545.38
0.000112877 0.0030262 0 64849.3
-0.00781161 0.0282885 0 399.062
-0.000846622 0.00344471 0 25452.7
-0.00206201 0.0306837 0 2476.39
-0.00313594 0.0160362 0 1488.32
0.00144289 0.0198776 0 3609.09
-0.000135136 0.00286502 0 1.00706e+006
-0.000205101 0.000950881 0 1.14318e+006
0.000372212 0.00308853 0 17288.3
0.000370404 0.000795868 0 1.17273e+006
0.000201681 0.00347815 0 30739.2
-0.000147808 0.00278598 0 1.04604e+006
0.000218103 0.000637733 0 1.30837e+006
0.000195722 0.00313377 0 32654.7
-0.00203813 0.00594128 0 15913.3
0.00112067 0.00510142 0 3107.03
5.16573e-005 0.00373385 0 21877
0.000381501 0.00336875 0 15988.1
0.000860715 0.0258401 0 3328.32
-0.000116556 0.00339842 0 48426.2
-0.00513668 0.0257477 0 582.186
-0.000162894 0.00277847 0 1.05296e+006
8.27341e-005 0.00277738 0 1.03864e+006
0.0010674 0.0118759 0 3389.71
-4.09992e-005 0.00275121 0 1.04452e+006
3.29665e-005 0.00297369 0 808281
-0.00204547 0.0090065 0 7861.82
-0.00160474 0.0048986 0 18142.7
8.25825e-005 0.00294819 0 893454
4.00473e-005 0.00273627 0 1.05002e+006
-9.41642e-005 0.00295571 0 889366
0.00150619 0.00997327 0 5134.12
8.22134e-005 0.00268838 0 1.0676e+006
-0.000160791 0.00267895 0 1.07789e+006
-0.000596112 0.00909085 0 1009.18
-9.31423e-005 0.00299701 0 717678
0.00235681 0.0126226 0 5997.15
0.00203765 0.00557212 0 18309.4
-0.000165794 0.0115731 0 1098.55
6.0159e-005 0.0021996 0 1.12362e+006
0.000371981 0.00362464 0 16273.8
-0.00733688 0.029685 0 449.594
-0.000180414 0.00743151 0 1651.55
-0.000357207 0.004885 0 5139.71
0.00253943 0.00813968 0 11318.2
-1.29377e-005 0.00332967 0 81229.4
-0.0010235 0.00361199 0 28107.5
-0.000285329 0.0030748 0 13678.8
-0.000681311 0.00329291 0 22903.1
-0.00260727 0.00895038 0 9857.33
0.00788717 0.0276195 0 397.365
0.0089704 0.0287411 0 325.053
-0.000270534 0.00232157 0 1.12318e+006
-0.00014416 0.00312601 0 74050.1
-0.000337662 0.00201762 0 1.13767e+006
0.0003962 0.00337513 0 15437.3
0.00121317 0.00701782 0 1770.49
0.000116206 0.00302915 0 54654.4
0.00225197 0.00666935 0 14387
-0.000507665 0.00548922 0 3517.9
-0.000231863 0.00226746 0 1.12393e+006
0.000244361 0.00226851 0 1.12689e+006
0.00111028 0.00505498 0 3131.34
0.000121223 0.00304184 0 58080.8
0.00012049 0.00243938 0 1.10861e+006
-0.0013386 0.0186068 0 3262.87
0.000102064 0.00149733 0 1.14503e+006
0.000147362 0.00301363 0 9815.78
0.00106981 0.0119939 0 3413.19
-0.000365953 0.00411169 0 10468.6
0.00557444 0.020358 0 491.504
4.86089e-005 0.00307386 0 364172
-0.000177413 0.0035472 0 29616.4
-0.000632994 0.00339325 0 8871.79
0.000487307 0.00130985 0 1.15308e+006
-0.000349424 0.00402777 0 11454.6
-0.00177251 0.00629586 0 10900.6
-7.92525e-005 0.00273084 0 1.05467e+006
0.000241714 0.00100077 0 1.14614e+006
-0.000154516 0.0114773 0 1091.59
0.00502442 0.0222916 0 581.707
-0.000166546 0.00272686 0 1.06812e+006
0.000707598 0.00365891 0 6860.57
-0.00157418 0.0046046 0 21515.3
0.000122725 0.00301099 0 10454.3
0.000172305 0.00324558 0 55030.4
7.46185e-006 0.00286175 0 978645
0.00533293 0.0140838 0 93.9731
0.00520504 0.0284215 0 848.683
-0.00170266 0.00713636 0 8134.53
4.38765e-005 0.00290514 0 937960
0.00035679 0.0099507 0 873.389
0.000120447 0.00300871 0 10422.7
7.85992e-005 0.00284146 0 1.00505e+006
0.000146556 0.00306157 0 37770.1
-0.000265484 0.00230758 0 1.12417e+006
-0.000558184 0.0114136 0 2471.45
0.000873988 0.011905 0 3124.04
0.00195145 0.0157285 0 3919.5
0.000415959 0.00988952 0 883.021
0.00204861 0.00551694 0 19216.6
0.00159497 0.00893937 0 5875.86
0.00125366 0.00690066 0 1944.35
-0.000537482 0.00397822 0 9029.9
-0.00245206 0.00890865 0 9700.97
-0.00591638 0.015069 0 80.7587
0.00182541 0.0157696 0 3988.04
-6.39179e-005 0.00274368 0 1.04787e+006
1.24162e-005 0.00286011 0 980608
0.000785526 0.00520879 0 3645.3
0.000119132 0.00288179 0 990428
0.000107617 0.00492998 0 5548.11
-0.000398708 0.00617064 0 2661.72
-0.00031795 0.000861625 0 1.15228e+006
-0.0054742 0.0145195 0 73.4011
-0.00050603 0.0093045 0 987.105
-0.00281713 0.0160093 0 2029.68
-0.00521587 0.0225645 0 494.065
0.000631138 0.00410172 0 7312.82
0.00077675 0.0118594 0 2992.2
-0.000339893 0.00491785 0 4987.77
0.000278502 0.0033019 0 25916.1
-0.000206291 0.0025551 0 1.1013e+006
0.0015782 0.00885327 0 5922.04
-0.000601058 0.00917374 0 1004.55
0.000107852 0.00308374 0 133639
0.000329157 0.00324408 0 17875.7
-0.000107456 0.0030138 0 60502.4
0.000995869 0.00478803 0 3808.55
-0.00176263 0.00715431 0 8591.5
0.000133123 0.00190024 0 1.1368e+006
0.00428452 0.0222831 0 709.179
0.00249322 0.0134845 0 4418.52
0.000209201 0.00303326 0 12445.9
1.124e-005 0.00241342 0 1.10844e+006
-0.000138897 0.00282521 0 1.02932e+006
-0.000422518 0.00130967 0 1.1522e+006
0.000897928 0.00602889 0 2444.39
0.00296246 0.0177704 0 1706.5
-0.000240922 0.0022558 0 1.12479e+006
0.000161456 0.0106342 0 822.542
-0.000169117 0.00269067 0 1.07647e+006
-0.00600599 0.0132277 0 34.0889
-0.00498542 0.0226529 0 509.638
0.00035646 0.00189436 0 1.14137e+006
0.000360867 0.00193124 0 1.1411e+006
0.000188008 0.00159518 0 1.1422e+006
0.00315697 0.0294361 0 1924.38
0.000380728 0.00331446 0 14880.1
-0.000407732 0.00541329 0 3751.5
0.00599218 0.0187772 0 381.833
-0.000475668 0.0124289 0 2496.19
9.243e-005 0.00339173 0 55283.2
-0.0022067 0.00902531 0 8403.44
0.000138287 0.010546 0 827.743
-4.59787e-005 0.00300592 0 688599
0.000475334 0.00325723 0 9109.48
0.0081269 0.0233608 0 194.811
-0.000136448 0.00286953 0 1.00494e+006
0.000465099 0.00132931 0 1.15443e+006
0.000196949 0.00312437 0 32947.9
-0.000725979 0.00459524 0 5210.77
0.00566025 0.0201173 0 501.605
-0.000237093 0.000937504 0 1.14705e+006
-7.15727e-006 0.00298867 0 763639
-0.000556128 0.00552312 0 3390.23
-0.000151452 0.00278159 0 1.04931e+006
0.00604583 0.0167381 0 169.926
5.44524e-005 0.00307484 0 346068
3.5211e-005 0.00270778 0 1.05919e+006
-0.00210731 0.0068781 0 12452.6
8.91266e-005 0.00319599 0 120968
-0.00242079 0.00974735 0 8075.56
0.00135885 0.00413507 0 24738.3
-0.00108228 0.00797081 0 1283.23
3.29303e-005 0.00271504 0 1.05662e+006
-0.000508078 0.0208168 0 7403.43
-0.00472826 0.0198065 0 612.564
0.00152826 0.0090827 0 5598.8
-0.00252462 0.00897287 0 10020.1
-4.09377e-005 0.0027578 0 1.04177e+006
-0.00186927 0.0116808 0 4992.64
0.00108447 0.00518193 0 3094.33
-0.00419392 0.0202211 0 751.542
0.000296615 0.00594885 0 2881.35
0.00365557 0.0156923 0 1189.37
-0.000138643 0.00311989 0 79374.1
3.44704e-005 0.00298593 0 771749
-0.000249911 0.000891772 0 1.15222e+006
0.00110337 0.0099601 0 4032.47
8.04689e-005 0.00279643 0 1.02903e+006
0.00779157 0.0249956 0 304.536
0.000351464 0.00337107 0 18366.2
-0.00012879 0.00323538 0 76828.4
0.000155895 0.00168996 0 1.14147e+006
8.56943e-005 0.00294739 0 897275
0.0053023 0.0238774 0 489.854
0.000238423 0.00318026 0 28022.1
0.000230406 0.00226533 0 1.1263e+006
-5.15866e-005 0.00292996 0 905252
2.57476e-005 0.00286927 0 973321
0.000105066 0.00340141 0 51330.5
-0.0006343 0.00341198 0 8300.68
-0.00683177 0.0130924 0 49.2681
-1.54609e-005 0.00299907 0 729135
-0.00215958 0.00656839 0 14861.5
0.00301179 0.0141363 0 1930.2
-0.000723924 0.00463742 0 5080.88
-0.000555458 0.00358088 0 9822.57
0.000287933 0.00394954 0 13352.1
-0.00525881 0.0259389 0 596.069
-0.000235386 0.00314485 0 23925.1
-0.000664883 0.00104525 0 1.1621e+006
0.00182857 0.0107598 0 5300.19
0.00289308 0.0133881 0 2824.6
0.000556851 0.000459359 0 1.3486e+006
-6.31462e-005 0.00306344 0 350193
0.00204396 0.0126442 0 5223.22
-0.000369072 0.00408052 0 10628
-0.00018247 0.00378321 0 17829.5
0.000579156 0.0162179 0 6147.76
0.00117061 0.0100074 0 4119.66
0.000129771 0.00301154 0 9776.59
0.00050022 0.00329429 0 8629.25
-0.00194273 0.0117557 0 5098.82
0.000295066 0.00600891 0 2889.75
-0.000154748 0.0030213 0 10661.8
8.51353e-005 0.00297491 0 833812
0.000370749 0.00364798 0 15574
0.00032381 0.000892659 0 1.15747e+006
-0.000114683 0.00273658 0 1.05685e+006
7.10543e-005 0.0030026 0 675078
-9.6647e-005 0.00324264 0 92163.2
0.000733896 0.00537107 0 3528.95
0.000155197 0.00494735 0 5222.29
0.000610019 0.00412319 0 7443.62
0.000353717 0.00194986 0 1.14082e+006
-0.000244432 0.00314026 0 20917.2
-0.00502653 0.0232658 0 480.31
-0.00178789 0.0309983 0 2642.67
-0.000579723 0.00361754 0 9527.89
0.00813841 0.0273314 0 377.675
-0.002496 0.0131044 0 5125.04
-0.00431729 0.0290645 0 1108.01
-0.000157683 0.00240005 0 1.11328e+006
-6.09633e-005 0.00273787 0 1.05078e+006
-0.000172602 0.00356894 0 28474.5
5.95493e-005 0.00280503 0 1.02259e+006
3.59382e-005 0.00297531 0 804034
0.0038221 0.0156522 0 1080.83
0.00151814 0.00899556 0 5514.04
0.00891208 0.0209237 0 114.622
0.00932881 0.0247628 0 177.967
0.000401147 0.00319889 0 10076.4
-1.37134e-005 0.00292236 0 909392
-0.00149883 0.0199029 0 3322.14
-0.000151382 0.00307642 0 43105.4
-9.99299e-005 0.00297786 0 840698
0.00528439 0.0241343 0 487.716
2.61097e-005 0.00286432 0 977643
0.000206875 0.00349712 0 30416.8
-0.00509797 0.0234717 0 486.17
-0.000597722 0.000953511 0 1.16705e+006
-0.00793898 0.0155863 0 42.6593
0.00183935 0.0106624 0 5391.88
7.52069e-005 0.00339368 0 56577.3
-7.77056e-005 0.00294222 0 898431
-9.8985e-005 0.00297992 0 834025
0.00161823 0.00911669 0 5947.86
8.21842e-005 0.00297527 0 829347
-0.00188133 0.00900925 0 6954.65
-0.00617827 0.0275965 0 578.466
-0.000490092 0.00321051 0 14294.5
0.00945115 0.0288751 0 283.655
-0.00016434 0.00272067 0 1.06986e+006
-0.00797941 0.0222445 0 187.158
-4.01564e-005 0.00301654 0 648031
-0.00180498 0.00506765 0 20056.4
-0.000161305 0.00301261 0 11462.1
-0.000482063 0.00316965 0 18747.4
-0.000942791 0.00378901 0 10187.9
-0.000134053 0.00282435 0 1.02831e+006
0.000242746 0.000963685 0 1.14719e+006
0.00525461 0.0274919 0 790.882
0.00306352 0.0179257 0 1672.13
-0.000120066 0.00324295 0 78809.4
-0.00319507 0.0125029 0 1050.72
-0.000290892 0.00233844 0 1.12342e+006
0.00159844 0.00482417 0 19544.6
0.00787978 0.0236538 0 218.727
0.00145057 0.0259009 0 3357.21
-0.000336257 0.00619409 0 2596.34
-0.000333917 0.00172186 0 1.14475e+006
0.00577509 0.0216659 0 421.881
0.000667048 0.00332313 0 19574.4
0.00248969 0.00807562 0 11240.8
-0.00160944 0.00467215 0 21103.9
1.98969e-005 0.00242157 0 1.10799e+006
0.000286635 0.0021356 0 1.13296e+006
-0.00161117 0.00618199 0 8677.11
7.54635e-005 0.00268391 0 1.06836e+006
0.00101663 0.00497361 0 3450.66
9.78423e-005 0.00320089 0 111543
-0.000282098 0.0245537 0 3875.72
0.00160534 0.0053807 0 13778.6
0.000645555 0.00426047 0 6743.24
0.000344665 0.00191282 0 1.14055e+006
-4.37224e-005 0.0030135 0 656777
0.000410526 0.00592784 0 2841.55
-0.00161438 0.00462874 0 22002.2
0.000197339 0.00307463 0 16559.1
-0.00787948 0.0250527 0 257.382
0.000365567 0.000836364 0 1.16241e+006
0.000428529 0.0031113 0 20002.4
6.29689e-005 0.00280138 0 1.02485e+006
-0.00260928 0.0115127 0 6377.78
0.00511854 0.0182191 0 550.046
-0.000191506 0.0013612 0 1.14482e+006
0.000255298 0.00234631 0 1.12269e+006
7.80872e-005 0.00285378 0 997729
-6.93966e-006 0.00361778 0 30474.7
-0.000112834 0.00273034 0 1.05886e+006
-0.000151306 0.00308356 0 46754.7
0.000794921 0.00339323 0 25098.2
0.000120559 0.00308016 0 101431
-0.00060963 0.000994212 0 1.16501e+006
-0.000187211 0.00375918 0 19058
-0.000179749 0.00239602 0 1.11424e+006
0.000583853 0.00320912 0 23338.8
-0.000220391 0.00307379 0 13862.2
-3.20721e-005 0.00313154 0 254677
-0.00240166 0.00829286 0 10378.3
-0.000107553 0.0032363 0 88013.3
0.000485775 0.00324734 0 9504.81
-1.6528e-005 0.00283252 0 1.00011e+006
0.000388916 0.00319175 0 10157.1
-0.000191501 0.000101552 0 1.49243e+006
-0.00244196 0.00780076 0 12314.3
-0.000237142 0.00223825 0 1.12597e+006
-0.00179252 0.00511195 0 19296.8
7.86645e-005 0.00300926 0 597215
-0.00578012 0.0268724 0 600.516
-0.00101007 0.00801211 0 1240.74
0.000363332 0.00337974 0 18461.3
0.000391279 0.00186159 0 1.14296e+006
0.000433244 0.00317308 0 12422.9
0.00161612 0.00543442 0 13778.8
-0.00207993 0.00693738 0 12268.5
0.000483914 0.00474879 0 5650.4
0.000802557 6.40842e-005 0 1.51185e+006
0.00066144 0.00330597 0 20723.7
0.00141767 0.0197289 0 3476.18
-0.000651775 0.00329699 0 20490.1
0.000282152 0.00304241 0 14881.6
-0.000357054 0.00319624 0 12027.6
-0.00178284 0.00623412 0 11329.7
3.8992e-005 0.00380209 0 20277.5
-0.00100109 0.0210667 0 5990.02
0.000165033 0.00158259 0 1.14338e+006
0.00864187 0.0174253 0 54.8956
0.00315453 0.0128329 0 1381.66
-8.64597e-005 0.00318341 0 126990
-0.000259494 0.0126492 0 2316.77
0.000466396 0.000355167 0 1.45815e+006
0.000246728 0.00318708 0 27136.8
-0.000724122 0.000493878 0 1.26566e+006
-0.00236534 0.0089472 0 9125.71
-0.00585899 0.0184819 0 380.764
-0.000109395 0.00425783 0 10031.7
-0.000225082 0.00307869 0 13947.7
0.00116126 0.00383867 0 25536.6
0.000146244 0.00305529 0 34319.3
0.000106639 0.00285591 0 1.00379e+006
0.00516349 0.0142403 0 132.309
-0.000547118 0.0281975 0 3467.09
-0.00314055 0.0188201 0 1303.26
6.39205e-005 0.0034062 0 53046.2
0.000746714 0.00049437 0 1.276e+006
0.00226648 0.0258744 0 2836.75
-0.000137355 0.00283875 0 1.02249e+006
0.00173233 0.0108179 0 5017.1
-0.000334456 0.00625618 0 2456.5
-0.000652252 0.00338145 0 11451.1
-6.89277e-005 0.00306466 0 318758
0.000126795 0.00304178 0 45082.8
0.00478399 0.0277755 0 967.245
0.000516287 0.0229306 0 5177.79
5.89116e-005 0.00254342 0 1.09375e+006
-0.00795861 0.0246948 0 243.153
0.00133689 0.00999394 0 4662.14
-0.000118825 0.0220921 0 6434.83
6.34909e-005 0.0107046 0 806.479
-0.000946741 0.00381309 0 9148.77
0.00581241 0.0241952 0 419.885
-0.00487736 0.01991 0 566.961
0.00170829 0.0256098 0 2990.97
9.98067e-005 0.00316224 0 124439
0.00308063 0.0142797 0 1930.08
-0.000279242 0.00307977 0 13068.1
-0.000183934 0.00303725 0 13243.1
7.83288e-005 0.00286324 0 988039
-0.000440884 0.00514493 0 4115.05
0.000455558 0.00477565 0 5487.96
0.00520625 0.0221693 0 547.671
-0.00179507 0.00722781 0 8922.81
5.54873e-005 0.00266826 0 1.07123e+006
-0.00157971 0.00456195 0 22129.6
4.18607e-005 0.00302762 0 590917
-0.000194972 5.19224e-005 0 1.44428e+006
-0.000846289 0.00342394 0 27173.5
-0.00105965 0.00823661 0 1281.1
0.000163413 0.00479131 0 5956.83
-8.2874e-005 0.00288534 0 971230
0.00157378 0.00552232 0 12167.9
-7.66839e-005 0.00293931 0 903233
0.000101978 0.0109948 0 785.367
-0.000363872 0.00601296 0 2812.22
0.000117978 0.00287815 0 993517
0.000219153 0.00318835 0 33509.7
-0.00163196 0.00449872 0 23764.7
-0.000221409 0.00303399 0 13401.6
-0.000370966 0.0244074 0 4006.84
-0.000466554 0.00315829 0 18473.8
0.000396164 0.00331941 0 14016.6
-0.00482666 0.0238063 0 515.115
0.00133411 0.00522841 0 4694.57
-0.00267568 0.00982141 0 8879.41
-0.000480207 0.0219659 0 6070.15
0.00177473 0.0106071 0 5270.63
0.000428512 0.00597987 0 2852.61
0.00330832 0.0202369 0 1106.2
-0.00036699 0.012473 0 2293.23
-0.000901486 0.00347959 0 26649.4
-9.70158e-005 0.00294708 0 906072
-0.00110466 0.0144253 0 4097.98
-0.00107199 0.0143087 0 3976.9
0.000113095 0.0030798 0 121603
0.000776547 0.0117402 0 2994.1
-0.000196596 0.00302496 0 12399.6
-0.00581483 0.0148124 0 79.8778
0.000125326 0.00308478 0 94938.8
-0.00172589 0.0230235 0 3777.94
-0.00123798 0.0114294 0 3817.21
-0.000106038 0.00301072 0 55743.9
7.68012e-005 0.00277918 0 1.03704e+006
-0.000218387 0.00226751 0 1.12403e+006
0.00288382 0.0120736 0 6809.76
0.000136685 0.00272066 0 1.06624e+006
0.00126396 0.00994364 0 4561.2
0.000169734 0.00323168 0 56754.7
3.33298e-005 0.00296283 0 836725
7.38909e-005 0.00285244 0 997417
0.00226662 0.00684142 0 13746.3
-4.80444e-005 0.00288948 0 957008
0.000117291 0.00304527 0 86132.2
0.00044057 0.00316393 0 14527.5
0.00025781 0.000139806 0 1.52833e+006
-0.000553437 0.0115383 0 2499.32
0.00174054 0.0109254 0 4906.94
-0.00657824 0.0304887 0 535.949
-0.00287878 0.0309438 0 1759.34
-1.74214e-005 0.00292383 0 907390
0.000417861 0.00311152 0 20083.6
-0.000158816 0.00302837 0 12513.1
0.000540608 0.00339996 0 8895.86
0.00322243 0.0179545 0 1377.05
-0.000159371 0.0013528 0 1.14444e+006
0.000126077 0.0159893 0 9130.2
-0.00432652 0.0294311 0 1086.84
0.0015673 0.00546801 0 12111.2
-5.0904e-005 0.00292621 0 911431
-0.000106737 0.00293051 0 935678
0.00275932 0.0110589 0 7210.54
0.000556951 0.00340784 0 8645.48
0.000399007 0.0063813 0 2394.35
-4.55764e-005 0.00288684 0 959537
5.78688e-005 0.00240298 0 1.10945e+006
-0.00135948 0.0128543 0 3962.76
0.00105587 0.00489705 0 3434.81
-0.00180772 0.00736401 0 8908.31
8.62884e-005 0.0107917 0 805.926
-1.73838e-005 0.00299616 0 740709
-0.000559779 0.00402893 0 8669.52
-0.000129894 0.00339006 0 47414.2
-0.00108645 0.0209701 0 5936.63
-0.000355289 0.00318516 0 11737
6.75287e-005 0.00268766 0 1.06622e+006
-1.6399e-005 0.00282695 0 1.00473e+006
0.000375645 0.00184967 0 1.14212e+006
0.000226595 0.00318087 0 30506.7
-0.00157723 0.0197887 0 2977
0.000153682 0.00302297 0 9727.37
-0.000983791 0.00376429 0 16397.8
0.00320404 0.0139037 0 1597.63
-0.000399729 0.0051532 0 4448.75
-8.43671e-005 0.0028893 0 967973
0.00153091 0.0204307 0 4069.33
0.0023948 0.0125217 0 5956.26
0.000662239 0.00525468 0 3674.23
-0.00103759 0.0179087 0 4555.79
-0.00194218 0.00558429 0 17301.7
-0.000960129 0.00376594 0 13935.2
-0.000309837 0.00306474 0 15533.1
0.00162461 0.00920594 0 6006.59
0.00346181 0.0203111 0 1025.08
0.000412094 0.000782235 0 1.18027e+006
4.10836e-005 0.00290739 0 934535
0.00107752 0.00513333 0 3136.42
-0.00139776 0.00696247 0 2574.33
5.83714e-005 0.0023895 0 1.11119e+006
0.000501828 0.0119171 0 2582.12
-2.97555e-005 0.00300349 0 709512
0.00113092 0.00612109 0 2210.42
3.11664e-005 0.00285722 0 984106
-0.000756348 0.0223669 0 5357.65
0.000606022 0.00322532 0 23475.6
0.00858419 0.0213223 0 141.565
0.00228739 0.00873166 0 9243.59
-0.00330691 0.0124678 0 458.387
-0.00135503 0.018735 0 3187.15
-0.00782909 0.0173425 0 83.7915
0.000179373 0.00168518 0 1.14217e+006
0.000181353 0.0228576 0 5388.67
0.00116853 0.00608209 0 2196.19
0.00534216 0.0272787 0 780.449
0.000808836 0.00340365 0 25035.9
-0.00176706 0.00728799 0 8728.48
0.000366125 0.00308127 0 17071.7
0.000142062 0.00271694 0 1.06759e+006
0.000456136 0.0264018 0 3622.06
0.000149779 0.00301624 0 9683.78
8.09965e-005 0.015903 0 9019.1
3.07264e-005 0.00286231 0 979833
-0.000148146 0.00339011 0 44669.5
-0.0064378 0.0277565 0 543.631
0.00072806 0.00532362 0 3520.52
-0.00065633 0.00335203 0 15885.7
-0.000360464 0.000878987 0 1.15141e+006
-9.67537e-005 0.00295742 0 889693
-0.000484113 0.00948683 0 942.214
-0.000565445 0.00399845 0 8901.44
0.000588623 0.00111811 0 1.15999e+006
0.000130395 0.00304539 0 44769.6
0.000107754 0.00285149 0 1.00692e+006
0.00165731 0.0250536 0 3136.58
0.00285988 0.0119675 0 6863.16
-9.54028e-005 0.00428588 0 9831.28
-0.000124414 0.00317156 0 91607.2
-0.00814733 0.0285856 0 382.012
-0.000216377 0.0031251 0 25747.1
0.00549751 0.012219 0 34.8229
-0.00550796 0.012201 0 26.8506
0.00287309 0.0132504 0 2784.59
0.000396043 0.00090361 0 1.15619e+006
-9.96587e-005 0.00294535 0 911926
-0.00215947 0.00674928 0 13488.4
-0.000289559 0.000893856 0 1.15058e+006
0.00184728 0.00894591 0 6831.18
-0.000404895 0.00611192 0 2676.28
-0.00085135 0.00350535 0 22012.7
3.34633e-006 0.00298331 0 779510
0.00378526 0.0199019 0 982.641
-0.000528492 0.024373 0 4162.94
-0.000842118 0.0116133 0 3071.11
-0.00298148 0.0188909 0 1337.39
5.9556e-005 0.0025331 0 1.09547e+006
-0.000468824 0.00121303 0 1.15351e+006
9.1581e-005 0.0171817 0 11138.6
-0.00127026 0.0113439 0 3868.91
0.00402234 0.0130084 0 119.039
-0.000363163 0.00496329 0 4956.17
-0.00609252 0.0268039 0 552.234
0.000283831 0.00172705 0 1.14284e+006
-0.000884834 0.00452052 0 4520.4
0.000104251 0.00312707 0 132661
0.00028648 0.000908897 0 1.15361e+006
0.00627587 0.0218045 0 384.724
0.000138189 0.00301242 0 9854.07
-8.45766e-005 0.00300744 0 573239
-0.000367296 0.0115469 0 1772.22
4.43738e-005 0.00303088 0 571170
0.00481648 0.0179238 0 606.177
0.00149749 0.00436073 0 24527.4
0.00128386 0.00510424 0 3563.15
-0.000137123 0.00279496 0 1.04138e+006
0.00010392 0.0048879 0 5553.96
-0.00091848 7.16259e-005 0 1.46495e+006
3.54985e-006 0.00298714 0 768066
0.000749152 0.00426831 0 5764.64
-0.000130195 0.00286367 0 1.00588e+006
0.00513916 0.0264131 0 727.782
-0.00145383 0.00693267 0 3546.89
-0.000170314 0.00271408 0 1.07217e+006
0.000708754 0.00344963 0 8840.17
0.000173403 0.0026398 0 1.08781e+006
0.00102924 0.00397184 0 7623.45
7.04719e-005 0.00292897 0 916437
-0.000154347 0.00277069 0 1.05341e+006
0.000152777 0.00306484 0 33877.6
-0.0057264 0.0155753 0 144.245
-0.00516063 0.0124211 0 30.8629
-0.000727401 0.00332353 0 24154.8
0.00177507 0.00499121 0 20175.4
-0.00104148 0.00729487 0 1530.66
8.03056e-005 0.00285902 0 992043
0.000619507 0.00322392 0 24820.9
0.000491741 0.00344599 0 10967.8
-8.64345e-005 0.00319528 0 120863
0.000495863 0.00327729 0 8846.55
0.00629165 0.0165428 0 122.772
-0.000348261 0.00373379 0 15250.5
0.00695359 0.012557 0 57.0582
-0.00614658 0.0186042 0 318.462
0.00446424 0.0221677 0 700.062
-0.000789844 0.00391708 0 6015.8
0.000117774 0.00196522 0 1.13297e+006
-0.000255362 0.0148691 0 6006.45
-0.00503812 0.0284552 0 886.374
-0.000107009 0.00253653 0 1.09698e+006
0.000146628 0.00274959 0 1.05984e+006
0.00773255 0.0309094 0 405.748
0.000159147 0.00499252 0 5211.09
0.000514649 0.00313677 0 22994.2
0.00101358 0.00492618 0 3490.37
-0.00010231 0.00251506 0 1.09895e+006
-0.000149253 0.0149017 0 7722.83
-0.0026764 0.0106555 0 7631.58
-0.000401914 0.00497223 0 4600.06
-9.9778e-005 0.00250395 0 1.10053e+006
-0.000167489 0.00307565 0 29671.5
0.00547148 0.0254757 0 542.981
6.86885e-005 0.00304125 0 413021
-0.00443178 0.028435 0 1070
-9.60567e-005 0.00299261 0 777759
0.00605816 0.0243911 0 413.569
-0.00166852 0.0218177 0 4031.74
3.51271e-005 0.00306949 0 418034
0.00934401 0.0252145 0 187.683
0.000689131 0.0161709 0 4929.15
-0.00185288 0.0231304 0 3598.42
-0.000635695 0.0147353 0 3527.41
0.000424951 0.000378919 0 1.45337e+006
3.11571e-005 0.00341221 0 53155.6
-0.00451594 0.0239154 0 538.449
4.55634e-005 0.00300278 0 707011
-0.000190882 0.0026229 0 1.09161e+006
-0.00293428 0.0314144 0 1625.81
0.000192455 0.0109275 0 795.543
-7.99306e-005 0.00301235 0 545285
-0.000103784 0.019352 0 10291.6
0.000298059 0.00179298 0 1.14045e+006
0.000318272 0.00306073 0 16881.3
4.79498e-005 0.00267219 0 1.07029e+006
0.000550505 0.00439983 0 6598.15
-6.64966e-005 0.00296368 0 847791
-0.000353929 0.0037557 0 14758.8
0.00136689 0.00417221 0 24797.3
0.000288631 0.0043673 0 8171.88
-0.000116817 0.00316526 0 102112
0.000228982 0.00477361 0 5804.54
-0.00010849 0.00292752 0 940459
0.00158742 0.0252298 0 3123.43
0.00029744 0.00214644 0 1.13421e+006
0.00012001 0.0179918 0 11669.7
-2.8464e-005 0.00302556 0 618579
-0.000121369 0.00301027 0 10217.3
-0.000613293 0.003423 0 7893.11
0.000416492 0.000739339 0 1.19592e+006
0.00607599 0.0132862 0 32.3555
-0.000118426 0.00301015 0 10704.6
0.000338231 0.0030745 0 16964.6
-0.000760719 0.00047075 0 1.28166e+006
-0.000159712 0.00339978 0 43386.3
0.00621185 0.0259584 0 514.426
-0.000407926 0.00403608 0 9925.86
5.21801e-005 0.0048277 0 5905.41
0.00820777 0.0174274 0 59.4892
-0.000651027 0.00328042 0 21667.7
-8.91944e-005 0.00296269 0 871037
-0.000640908 0.0223311 0 5638.07
0.00498206 0.0148716 0 210.468
-0.000133404 0.00280466 0 1.036e+006
-0.00284514 0.0101497 0 9007.79
0.00015129 0.00247549 0 1.10663e+006
0.0036537 0.0164932 0 1145.23
0.000170347 0.00269813 0 1.07695e+006
-0.00192463 0.00759706 0 9417.65
-0.00146113 0.00452985 0 20493.8
0.00164564 0.0109866 0 4730.43
0.00153691 0.0307746 0 2994.76
0.000402223 0.00321336 0 9859.68
-0.000561587 0.00118082 0 1.15517e+006
-0.00107178 0.00734408 0 1510.25
-4.6988e-005 0.00292472 0 911745
0.000121356 0.00262665 0 1.08475e+006
-0.00180667 0.021881 0 3720.45
-0.000301986 0.0030856 0 13296.5
-0.000116548 0.00289513 0 979299
0.000683718 0.0116885 0 2854.04
-0.000354426 0.00170815 0 1.14608e+006
0.000168525 0.00302989 0 11220.1
0.0016288 0.00554363 0 13050.5
-0.000454254 0.00780077 0 1408.38
9.99188e-005 0.00299126 0 787074
-0.000923631 0.00351832 0 25892.7
-0.000513771 0.00531417 0 3578.79
-0.000134682 0.0174176 0 11444.7
0.000245462 0.00302872 0 15657.6
-0.00010594 0.00296983 0 874975
0.000263028 0.00390471 0 14594.2
0.000668464 0.00324245 0 26532.6
-0.00016736 0.00267447 0 1.0798e+006
9.47415e-005 0.00371123 0 23507.1
0.00421743 0.0282356 0 1262.38
0.000517536 0.00330043 0 8667.67
7.86006e-005 0.00301308 0 555009
-0.00150253 0.0233222 0 3938.01
3.50244e-005 0.00343033 0 52454.4
0.00521285 0.0268086 0 764.624
-2.25255e-005 0.00298419 0 776908
0.000210866 0.0048041 0 5741.03
-0.00060708 0.0165096 0 6462.67
0.00212885 0.0061951 0 15154.2
-2.66592e-005 0.00312601 0 273055
-0.00828018 0.0153779 0 43.9279
-0.00170476 0.0244237 0 3286.66
-2.90915e-005 0.00298341 0 779351
-0.00185381 0.0061466 0 12953.5
3.45393e-006 0.00277635 0 1.03242e+006
0.00147734 0.00677235 0 4566.83
0.00789347 0.0314466 0 383.354
-0.00613399 0.0273266 0 561.591
6.50073e-005 0.00218408 0 1.12513e+006
-0.00147779 0.0231807 0 4012.95
-0.000188401 0.00264524 0 1.08769e+006
-0.00075172 0.0114273 0 2950.78
0.00122718 0.0181316 0 3453.19
-0.000212778 0.0261997 0 3512.18
-0.000849183 0.00348376 0 23194.8
0.00262104 0.0134155 0 3970.02
1.27232e-005 0.00293823 0 881378
0.000154311 0.000143575 0 1.52243e+006
0.00227939 0.00864795 0 9330.9
-0.000341661 0.00336084 0 19519.9
-0.00187213 0.00737965 0 9455.25
-0.000325102 0.00324186 0 18226
0.00106283 0.00405371 0 7653.34
0.00306202 0.0160229 0 1830.96
-0.00125502 0.0209796 0 5328.47
-0.000371653 0.00205944 0 1.13814e+006
-6.26965e-005 0.00321945 0 122906
0.00162374 0.026075 0 3354.72
2.10167e-006 0.00278249 0 1.0291e+006
-0.0055484 0.0286456 0 743.891
0.00015094 0.0013019 0 1.14434e+006
0.000698722 0.0033001 0 24559.6
-0.000209116 0.00313022 0 29355.9
0.000178301 0.00263421 0 1.08897e+006
-0.000170601 0.00241911 0 1.11224e+006
6.51233e-005 0.00278293 0 1.03379e+006
0.000796117 0.00012178 0 1.49695e+006
-0.00585119 0.020535 0 389.338
-0.000609924 0.00122633 0 1.15438e+006
-0.000102624 0.00304973 0 153577
0.00514232 0.0257801 0 629.117
-0.00828702 0.0225688 0 178.598
-0.000614799 0.00344241 0 7557.23
-0.00151189 0.0188183 0 2642.77
-3.25492e-005 0.0029848 0 774661
0.00054607 0.027935 0 3563.62
-0.000162612 0.00307065 0 30920.5
0.00170386 0.00536783 0 15545.6
0.000122657 0.00246052 0 1.10693e+006
0.000114118 0.00372299 0 22216.5
0.000279019 0.00175174 0 1.1422e+006
-0.00259204 0.0130168 0 4779.97
0.0051502 0.0128645 0 38.5378
-9.8562e-005 0.00342344 0 46445.3