# T  FACE_DATA 23640
#  x  y  z  T
-0.00296834 0.0159323 0 153.37
0.000794309 0.0100339 0 115.322
0.00690979 0.0130745 0 288.82
0.000158008 0.0018211 0 351.77
-0.000662165 0.0113619 0 129.988
-0.00203768 0.00587959 0 226.749
-0.000220137 0.00748479 0 108.504
0.00214531 0.0125841 0 169.863
-0.00164167 0.00702341 0 164.61
0.00020958 0.00306993 0 188.122
4.59799e-005 0.00273939 0 414.612
0.00075606 0.00524313 0 127.434
0.00107075 0.0257944 0 168.692
-0.000458708 0.0115994 0 122.131
-0.000900467 0.00350322 0 239.488
-0.00222355 0.00655891 0 230.391
0.00442703 0.0182294 0 146.683
7.09705e-005 0.00299924 0 382.749
-2.45517e-005 0.00292714 0 399.058
-0.000543852 0.00394831 0 154.18
7.98376e-005 0.00283498 0 414.145
0.00510868 0.0124654 0 254.134
7.37866e-005 0.00284217 0 413.37
-0.000122136 0.00287943 0 401.686
0.00117211 0.0120328 0 140.04
0.000340217 0.00636002 0 118.454
-1.62375e-005 0.00331413 0 239.563
0.000288499 0.00391811 0 167.332
0.00604323 0.0215883 0 135.421
0.0015748 0.0199438 0 157.914
0.000642306 0.0286533 0 219.015
-0.000788091 0.000235815 0 299.912
8.45076e-005 0.00283429 0 414.542
-0.000766033 0.00453527 0 134.496
-0.000556446 0.00360452 0 157.471
-0.000694613 0.00330261 0 232.666
0.00425461 0.0181246 0 144.966
0.00563158 0.0299784 0 228.404
0.00374311 0.0125452 0 172.743
-0.000168184 0.00269727 0 405.428
0.00100487 0.00483203 0 128.572
-0.00170325 0.00704586 0 168.651
-0.00047461 0.0123053 0 128.723
-0.00401905 0.0129379 0 168.783
0.000128446 0.00148328 0 320.304
0.000108141 0.00315803 0 265.315
0.00299545 0.0176096 0 151.067
0.00122698 0.00708374 0 110.828
0.000214903 0.00307399 0 187.045
0.00225142 0.0126586 0 178.347
0.000204708 0.00068009 0 300.043
4.25297e-005 0.00299727 0 384.529
-0.000477288 0.00315875 0 219.975
-0.00378992 0.02149 0 133.252
0.000139812 0.00181138 0 350.164
0.000208917 0.00302796 0 249.869
-0.00160791 0.0049468 0 194.556
0.000941143 0.00995448 0 133.745
8.9442e-006 0.010956 0 93.1976
-0.000434056 0.00133506 0 307.347
0.000566946 0.0289715 0 222.585
-7.40414e-005 0.003214 0 258.471
-0.000145493 0.00239699 0 398.737
3.42483e-005 0.00298986 0 387.505
0.000575544 0.00987125 0 96.9401
3.71363e-005 0.00299095 0 387.199
-0.00247102 0.00772987 0 231.603
0.00096928 0.0118325 0 136.482
-9.22697e-005 0.00299969 0 366.158
-0.000570617 0.0122505 0 130.831
-0.000211411 0.00254812 0 403.314
-0.000765289 0.00457715 0 134.083
8.13068e-005 0.00294139 0 405.258
-0.00437678 0.0203082 0 134.781
0.00226862 0.00661101 0 237.969
-0.000832194 0.000220534 0 299.825
-0.000164868 0.00301134 0 290.508
0.0012393 0.0259768 0 172.131
-2.48279e-005 0.00292318 0 399.623
0.000116572 0.00245177 0 413.401
9.77655e-005 0.00313112 0 277.576
0.000279024 0.00328636 0 198.79
-5.75605e-005 0.0116355 0 100.756
-7.47936e-005 0.0117342 0 100.671
0.000518168 0.00993111 0 96.2603
-0.000154608 0.0030256 0 210.924
4.53443e-005 0.00299839 0 384.046
-0.000161071 0.0027724 0 404.918
0.000104836 0.00293916 0 409.414
-0.00100104 0.00361077 0 242.04
-0.000510005 0.00921774 0 97.8612
0.00100295 0.0100141 0 137.774
-0.000646084 0.00336418 0 176.015
6.96906e-005 0.00293287 0 405.214
-1.67264e-005 0.00300289 0 379.346
0.000173509 0.0227352 0 179.24
3.17037e-005 0.00298455 0 389.289
0.000312244 0.00306502 0 242.877
-0.00212604 0.00906512 0 167.854
-0.00049218 0.00322389 0 178.051
0.000341345 0.00323843 0 183.248
-0.00385942 0.0216496 0 131.885
-0.000125834 0.0028813 0 401.748
0.00524627 0.0255212 0 146.781
0.000713781 0.0036837 0 149.385
0.00601727 0.0299149 0 227.825
-0.000344095 0.00203632 0 366.38
-0.0047341 0.0239481 0 128.698
-0.000460773 0.00539436 0 127.283
-0.00196148 0.00905338 0 163.53
0.00143807 0.0303782 0 233.776
7.94637e-005 0.00293894 0 405.411
0.00013473 0.00481908 0 139.934
0.00105264 0.00484794 0 127.648
0.000112877 0.0030262 0 250.728
-0.00781161 0.0282885 0 209.073
-0.000846622 0.00344471 0 241.124
-0.00206201 0.0306837 0 235.274
-0.00313594 0.0160362 0 150.57
0.00144289 0.0198776 0 163.66
-0.000135136 0.00286502 0 402.861
-0.000205101 0.000950881 0 301.214
0.000372212 0.00308853 0 247.842
0.000370404 0.000795868 0 300.023
0.000201681 0.00347815 0 198.648
-0.000147808 0.00278598 0 404.724
0.000218103 0.000637733 0 300.009
0.000195722 0.00313377 0 216.396
-0.00203813 0.00594128 0 220.976
0.00112067 0.00510142 0 124.018
5.16573e-005 0.00373385 0 184.298
0.000381501 0.00336875 0 179.456
0.000860715 0.0258401 0 169.399
-0.000116556 0.00339842 0 214.897
-0.00513668 0.0257477 0 148.235
-0.000162894 0.00277847 0 405.083
8.27341e-005 0.00277738 0 416.164
0.0010674 0.0118759 0 137.933
-4.09992e-005 0.00275121 0 409.516
3.29665e-005 0.00297369 0 392.879
-0.00204547 0.0090065 0 166.203
-0.00160474 0.0048986 0 198.178
8.25825e-005 0.00294819 0 404.275
4.00473e-005 0.00273627 0 414.342
-9.41642e-005 0.00295571 0 393.521
0.00150619 0.00997327 0 150.411
8.22134e-005 0.00268838 0 417.248
-0.000160791 0.00267895 0 405.59
-0.000596112 0.00909085 0 98.2741
-9.31423e-005 0.00299701 0 375.53
0.00235681 0.0126226 0 185.448
0.00203765 0.00557212 0 259.601
-0.000165794 0.0115731 0 102.567
6.0159e-005 0.0021996 0 389.368
0.000371981 0.00362464 0 174.876
-0.00733688 0.029685 0 225.489
-0.000180414 0.00743151 0 108.745
-0.000357207 0.004885 0 135.697
0.00253943 0.00813968 0 229.088
-1.29377e-005 0.00332967 0 237.362
-0.0010235 0.00361199 0 258.29
-0.000285329 0.0030748 0 200.533
-0.000681311 0.00329291 0 231.958
-0.00260727 0.00895038 0 215.7
0.00788717 0.0276195 0 200.609
0.0089704 0.0287411 0 217.003
-0.000270534 0.00232157 0 393.671
-0.00014416 0.00312601 0 241.128
-0.000337662 0.00201762 0 363.925
0.0003962 0.00337513 0 177.977
0.00121317 0.00701782 0 110.86
0.000116206 0.00302915 0 242.387
0.00225197 0.00666935 0 231.964
-0.000507665 0.00548922 0 125.817
-0.000231863 0.00226746 0 389.257
0.000244361 0.00226851 0 408.46
0.00111028 0.00505498 0 124.394
0.000121223 0.00304184 0 246.89
0.00012049 0.00243938 0 412.949
-0.0013386 0.0186068 0 157.38
0.000102064 0.00149733 0 321.123
0.000147362 0.00301363 0 227.716
0.00106981 0.0119939 0 138.394
-0.000365953 0.00411169 0 156.788
0.00557444 0.020358 0 142.716
4.86089e-005 0.00307386 0 330.851
-0.000177413 0.0035472 0 194.231
-0.000632994 0.00339325 0 159.455
0.000487307 0.00130985 0 308.419
-0.000349424 0.00402777 0 159.703
-0.00177251 0.00629586 0 174.125
-7.92525e-005 0.00273084 0 408.096
0.000241714 0.00100077 0 301.877
-0.000154516 0.0114773 0 102.131
0.00502442 0.0222916 0 136.608
-0.000166546 0.00272686 0 405.329
0.000707598 0.00365891 0 149.418
-0.00157418 0.0046046 0 228.622
0.000122725 0.00301099 0 202.628
0.000172305 0.00324558 0 228.186
7.46185e-006 0.00286175 0 407.569
0.00533293 0.0140838 0 154.941
0.00520504 0.0284215 0 211.829
-0.00170266 0.00713636 0 169.046
4.38765e-005 0.00290514 0 406.289
0.00035679 0.0099507 0 96.0761
0.000120447 0.00300871 0 205.054
7.85992e-005 0.00284146 0 413.774
0.000146556 0.00306157 0 223.936
-0.000265484 0.00230758 0 392.408
-0.000558184 0.0114136 0 126.197
0.000873988 0.011905 0 135.031
0.00195145 0.0157285 0 163.849
0.000415959 0.00988952 0 96.237
0.00204861 0.00551694 0 266.117
0.00159497 0.00893937 0 156.819
0.00125366 0.00690066 0 113.307
-0.000537482 0.00397822 0 153.306
-0.00245206 0.00890865 0 195.146
-0.00591638 0.015069 0 144.696
0.00182541 0.0157696 0 162.906
-6.39179e-005 0.00274368 0 408.548
1.24162e-005 0.00286011 0 407.999
0.000785526 0.00520879 0 127.728
0.000119132 0.00288179 0 415.65
0.000107617 0.00492998 0 139.178
-0.000398708 0.00617064 0 119.227
-0.00031795 0.000861625 0 300.345
-0.0054742 0.0145195 0 143.099
-0.00050603 0.0093045 0 97.9481
-0.00281713 0.0160093 0 154.24
-0.00521587 0.0225645 0 131.992
0.000631138 0.00410172 0 148.264
0.00077675 0.0118594 0 133.422
-0.000339893 0.00491785 0 135.193
0.000278502 0.0033019 0 197.543
-0.000206291 0.0025551 0 403.52
0.0015782 0.00885327 0 157.562
-0.000601058 0.00917374 0 98.2191
0.000107852 0.00308374 0 279.884
0.000329157 0.00324408 0 187.191
-0.000107456 0.0030138 0 257.135
0.000995869 0.00478803 0 129.081
-0.00176263 0.00715431 0 170.108
0.000133123 0.00190024 0 359.538
0.00428452 0.0222831 0 136.889
0.00249322 0.0134845 0 180.776
0.000209201 0.00303326 0 223.643
1.124e-005 0.00241342 0 405.033
-0.000138897 0.00282521 0 404.021
-0.000422518 0.00130967 0 306.647
0.000897928 0.00602889 0 117.985
0.00296246 0.0177704 0 151.146
-0.000240922 0.0022558 0 388.249
0.000161456 0.0106342 0 94.3377
-0.000169117 0.00269067 0 405.413
-0.00600599 0.0132277 0 250.137
-0.00498542 0.0226529 0 130.931
0.00035646 0.00189436 0 365.979
0.000360867 0.00193124 0 370.803
0.000188008 0.00159518 0 329.389
0.00315697 0.0294361 0 224.476
0.000380728 0.00331446 0 178.709
-0.000407732 0.00541329 0 127.72
0.00599218 0.0187772 0 145.489
-0.000475668 0.0124289 0 129.091
9.243e-005 0.00339173 0 221.286
-0.0022067 0.00902531 0 171.183
0.000138287 0.010546 0 94.5586
-4.59787e-005 0.00300592 0 374.212
0.000475334 0.00325723 0 164.793
0.0081269 0.0233608 0 127.512
-0.000136448 0.00286953 0 402.89
0.000465099 0.00132931 0 309.669
0.000196949 0.00312437 0 215.226
-0.000725979 0.00459524 0 136.088
0.00566025 0.0201173 0 143.727
-0.000237093 0.000937504 0 301.024
-7.15727e-006 0.00298867 0 385.535
-0.000556128 0.00552312 0 124.762
-0.000151452 0.00278159 0 404.891
0.00604583 0.0167381 0 131.947
5.44524e-005 0.00307484 0 327.796
3.5211e-005 0.00270778 0 414.32
-0.00210731 0.0068781 0 188.126
8.91266e-005 0.00319599 0 263.511
-0.00242079 0.00974735 0 179.462
0.00135885 0.00413507 0 243.223
-0.00108228 0.00797081 0 102.652
3.29303e-005 0.00271504 0 414.133
-0.000508078 0.0208168 0 188.651
-0.00472826 0.0198065 0 137.162
0.00152826 0.0090827 0 155.5
-0.00252462 0.00897287 0 203.294
-4.09377e-005 0.0027578 0 409.377
-0.00186927 0.0116808 0 154.633
0.00108447 0.00518193 0 123.825
-0.00419392 0.0202211 0 136.261
0.000296615 0.00594885 0 121.988
0.00365557 0.0156923 0 159.776
-0.000138643 0.00311989 0 245.401
3.44704e-005 0.00298593 0 388.947
-0.000249911 0.000891772 0 300.651
0.00110337 0.0099601 0 142.822
8.04689e-005 0.00279643 0 415.586
0.00779157 0.0249956 0 144.082
0.000351464 0.00337107 0 184.163
-0.00012879 0.00323538 0 238.412
0.000155895 0.00168996 0 337.792
8.56943e-005 0.00294739 0 404.877
0.0053023 0.0238774 0 132.664
0.000238423 0.00318026 0 206.318
0.000230406 0.00226533 0 406.882
-5.15866e-005 0.00292996 0 397.592
2.57476e-005 0.00286927 0 408.24
0.000105066 0.00340141 0 218.207
-0.0006343 0.00341198 0 156.602
-0.00683177 0.0130924 0 285.38
-1.54609e-005 0.00299907 0 381.04
-0.00215958 0.00656839 0 211.716
0.00301179 0.0141363 0 171.488
-0.000723924 0.00463742 0 135.469
-0.000555458 0.00358088 0 158.047
0.000287933 0.00394954 0 166.501
-0.00525881 0.0259389 0 156.191
-0.000235386 0.00314485 0 196.907
-0.000664883 0.00104525 0 296.737
0.00182857 0.0107598 0 154.674
0.00289308 0.0133881 0 185.486
0.000556851 0.000459359 0 299.846
-6.31462e-005 0.00306344 0 324.346
0.00204396 0.0126442 0 165.31
-0.000369072 0.00408052 0 157.399
-0.00018247 0.00378321 0 175.023
0.000579156 0.0162179 0 169.392
0.00117061 0.0100074 0 142.562
0.000129771 0.00301154 0 209.989
0.00050022 0.00329429 0 161.749
-0.00194273 0.0117557 0 156.23
0.000295066 0.00600891 0 122.037
-0.000154748 0.0030213 0 218.651
8.51353e-005 0.00297491 0 398.541
0.000370749 0.00364798 0 173.271
0.00032381 0.000892659 0 300.582
-0.000114683 0.00273658 0 406.575
7.10543e-005 0.0030026 0 380.256
-9.6647e-005 0.00324264 0 245.83
0.000733896 0.00537107 0 127.062
0.000155197 0.00494735 0 137.648
0.000610019 0.00412319 0 148.556
0.000353717 0.00194986 0 373.26
-0.000244432 0.00314026 0 192.179
-0.00502653 0.0232658 0 128.476
-0.00178789 0.0309983 0 237.074
-0.000579723 0.00361754 0 157.018
0.00813841 0.0273314 0 196.08
-0.002496 0.0131044 0 183.487
-0.00431729 0.0290645 0 219.211
-0.000157683 0.00240005 0 398.728
-6.09633e-005 0.00273787 0 408.818
-0.000172602 0.00356894 0 192.616
5.95493e-005 0.00280503 0 413.884
3.59382e-005 0.00297531 0 392.595
0.0038221 0.0156522 0 160.804
0.00151814 0.00899556 0 154.996
0.00891208 0.0209237 0 123.131
0.00932881 0.0247628 0 143.642
0.000401147 0.00319889 0 168.903
-1.37134e-005 0.00292236 0 400.312
-0.00149883 0.0199029 0 161.978
-0.000151382 0.00307642 0 222.942
-9.99299e-005 0.00297786 0 389.448
0.00528439 0.0241343 0 132.553
2.61097e-005 0.00286432 0 408.623
0.000206875 0.00349712 0 197.772
-0.00509797 0.0234717 0 129.174
-0.000597722 0.000953511 0 297.983
-0.00793898 0.0155863 0 160.839
0.00183935 0.0106624 0 155.15
7.52069e-005 0.00339368 0 222.461
-7.77056e-005 0.00294222 0 395.364
-9.8985e-005 0.00297992 0 389.283
0.00161823 0.00911669 0 157.863
8.21842e-005 0.00297527 0 397.807
-0.00188133 0.00900925 0 163.493
-0.00617827 0.0275965 0 197.157
-0.000490092 0.00321051 0 185.371
0.00945115 0.0288751 0 218.887
-0.00016434 0.00272067 0 405.4
-0.00797941 0.0222445 0 128.06
-4.01564e-005 0.00301654 0 369.261
-0.00180498 0.00506765 0 243.309
-0.000161305 0.00301261 0 282.346
-0.000482063 0.00316965 0 210.412
-0.000942791 0.00378901 0 165.536
-0.000134053 0.00282435 0 403.969
0.000242746 0.000963685 0 301.402
0.00525461 0.0274919 0 197.911
0.00306352 0.0179257 0 150.841
-0.000120066 0.00324295 0 239.508
-0.00319507 0.0125029 0 186.242
-0.000290892 0.00233844 0 395.195
0.00159844 0.00482417 0 210.985
0.00787978 0.0236538 0 129.126
0.00145057 0.0259009 0 171.51
-0.000336257 0.00619409 0 118.727
-0.000333917 0.00172186 0 333.252
0.00577509 0.0216659 0 134.102
0.000667048 0.00332313 0 201.06
0.00248969 0.00807562 0 223.047
-0.00160944 0.00467215 0 231.385
1.98969e-005 0.00242157 0 405.993
0.000286635 0.0021356 0 395.318
-0.00161117 0.00618199 0 169.411
7.54635e-005 0.00268391 0 416.845
0.00101663 0.00497361 0 126.634
9.78423e-005 0.00320089 0 259.136
-0.000282098 0.0245537 0 170.599
0.00160534 0.0053807 0 189.864
0.000645555 0.00426047 0 145.12
0.000344665 0.00191282 0 367.988
-4.37224e-005 0.0030135 0 370.311
0.000410526 0.00592784 0 121.645
-0.00161438 0.00462874 0 243.212
0.000197339 0.00307463 0 192.709
-0.00787948 0.0250527 0 141.28
0.000365567 0.000836364 0 300.166
0.000428529 0.0031113 0 263.097
6.29689e-005 0.00280138 0 414.271
-0.00260928 0.0115127 0 191.68
0.00511854 0.0182191 0 145.954
-0.000191506 0.0013612 0 311.746
0.000255298 0.00234631 0 416.95
7.80872e-005 0.00285378 0 413.159
-6.93966e-006 0.00361778 0 195.833
-0.000112834 0.00273034 0 406.737
-0.000151306 0.00308356 0 226.108
0.000794921 0.00339323 0 237.407
0.000120559 0.00308016 0 267.322
-0.00060963 0.000994212 0 297.641
-0.000187211 0.00375918 0 176.951
-0.000179749 0.00239602 0 398.193
0.000583853 0.00320912 0 245.408
-0.000220391 0.00307379 0 188.119
-3.20721e-005 0.00313154 0 301.601
-0.00240166 0.00829286 0 198.988
-0.000107553 0.0032363 0 244.281
0.000485775 0.00324734 0 166.783
-1.6528e-005 0.00283252 0 408.011
0.000388916 0.00319175 0 169.379
-0.000191501 0.000101552 0 300
-0.00244196 0.00780076 0 225.983
-0.000237142 0.00223825 0 386.556
-0.00179252 0.00511195 0 231.883
7.86645e-005 0.00300926 0 369.177
-0.00578012 0.0268724 0 182.471
-0.00101007 0.00801211 0 101.851
0.000363332 0.00337974 0 183.725
0.000391279 0.00186159 0 363.706
0.000433244 0.00317308 0 181.723
0.00161612 0.00543442 0 189.252
-0.00207993 0.00693738 0 186.491
0.000483914 0.00474879 0 139.845
0.000802557 6.40842e-005 0 300
0.00066144 0.00330597 0 207.749
0.00141767 0.0197289 0 162.392
-0.000651775 0.00329699 0 209.523
0.000282152 0.00304241 0 294.492
-0.000357054 0.00319624 0 170.688
-0.00178284 0.00623412 0 174.259
3.8992e-005 0.00380209 0 180.849
-0.00100109 0.0210667 0 184.68
0.000165033 0.00158259 0 328.091
0.00864187 0.0174253 0 125.452
0.00315453 0.0128329 0 183.194
-8.64597e-005 0.00318341 0 263.604
-0.000259494 0.0126492 0 126.737
0.000466396 0.000355167 0 299.978
0.000246728 0.00318708 0 204.57
-0.000724122 0.000493878 0 298.978
-0.00236534 0.0089472 0 183.143
-0.00585899 0.0184819 0 140.114
-0.000109395 0.00425783 0 156.146
-0.000225082 0.00307869 0 186.981
0.00116126 0.00383867 0 236.939
0.000146244 0.00305529 0 220.579
0.000106639 0.00285591 0 415.457
0.00516349 0.0142403 0 151.391
-0.000547118 0.0281975 0 213.432
-0.00314055 0.0188201 0 142.782
6.39205e-005 0.0034062 0 220.823
0.000746714 0.00049437 0 298.641
0.00226648 0.0258744 0 169.479
-0.000137355 0.00283875 0 403.722
0.00173233 0.0108179 0 151.951
-0.000334456 0.00625618 0 117.311
-0.000652252 0.00338145 0 171.495
-6.89277e-005 0.00306466 0 320.055
0.000126795 0.00304178 0 235.117
0.00478399 0.0277755 0 203.341
0.000516287 0.0229306 0 178.215
5.89116e-005 0.00254342 0 413.791
-0.00795861 0.0246948 0 133.707
0.00133689 0.00999394 0 146.736
-0.000118825 0.0220921 0 185.284
6.34909e-005 0.0107046 0 93.9146
-0.000946741 0.00381309 0 161.535
0.00581241 0.0241952 0 133.11
-0.00487736 0.01991 0 136.699
0.00170829 0.0256098 0 166.495
9.98067e-005 0.00316224 0 267.795
0.00308063 0.0142797 0 171.984
-0.000279242 0.00307977 0 192.924
-0.000183934 0.00303725 0 205.376
7.83288e-005 0.00286324 0 412.568
-0.000440884 0.00514493 0 129.903
0.000455558 0.00477565 0 139.095
0.00520625 0.0221693 0 136.968
-0.00179507 0.00722781 0 170.875
5.54873e-005 0.00266826 0 415.61
-0.00157971 0.00456195 0 237.828
4.18607e-005 0.00302762 0 366.595
-0.000194972 5.19224e-005 0 300
-0.000846289 0.00342394 0 258.659
-0.00105965 0.00823661 0 103.034
0.000163413 0.00479131 0 141.087
-8.2874e-005 0.00288534 0 401.775
0.00157378 0.00552232 0 183.552
-7.66839e-005 0.00293931 0 395.83
0.000101978 0.0109948 0 92.9934
-0.000363872 0.00601296 0 120.709
0.000117978 0.00287815 0 415.747
0.000219153 0.00318835 0 211.312
-0.00163196 0.00449872 0 274.119
-0.000221409 0.00303399 0 252.519
-0.000370966 0.0244074 0 171.608
-0.000466554 0.00315829 0 211.791
0.000396164 0.00331941 0 176.321
-0.00482666 0.0238063 0 128.622
0.00133411 0.00522841 0 142.04
-0.00267568 0.00982141 0 215.723
-0.000480207 0.0219659 0 183.294
0.00177473 0.0106071 0 153.807
0.000428512 0.00597987 0 121.692
0.00330832 0.0202369 0 142.094
-0.00036699 0.012473 0 125.784
-0.000901486 0.00347959 0 256.379
-9.70158e-005 0.00294708 0 395.2
-0.00110466 0.0144253 0 151.844
-0.00107199 0.0143087 0 150.987
0.000113095 0.0030798 0 274.88
0.000776547 0.0117402 0 133.331
-0.000196596 0.00302496 0 265.565
-0.00581483 0.0148124 0 149.423
0.000125326 0.00308478 0 263.534
-0.00172589 0.0230235 0 172.964
-0.00123798 0.0114294 0 142.472
-0.000106038 0.00301072 0 257.235
7.68012e-005 0.00277918 0 415.727
-0.000218387 0.00226751 0 389.321
0.00288382 0.0120736 0 237.166
0.000136685 0.00272066 0 420.726
0.00126396 0.00994364 0 145.784
0.000169734 0.00323168 0 230.215
3.33298e-005 0.00296283 0 395.897
7.38909e-005 0.00285244 0 412.889
0.00226662 0.00684142 0 223.522
-4.80444e-005 0.00288948 0 402.524
0.000117291 0.00304527 0 262.864
0.00044057 0.00316393 0 191.271
0.00025781 0.000139806 0 300
-0.000553437 0.0115383 0 126.032
0.00174054 0.0109254 0 151.323
-0.00657824 0.0304887 0 232.028
-0.00287878 0.0309438 0 235.784
-1.74214e-005 0.00292383 0 399.906
0.000417861 0.00311152 0 250.138
-0.000158816 0.00302837 0 209.197
0.000540608 0.00339996 0 161.24
0.00322243 0.0179545 0 147.221
-0.000159371 0.0013528 0 311.581
0.000126077 0.0159893 0 184.814
-0.00432652 0.0294311 0 223.191
0.0015673 0.00546801 0 184.435
-5.0904e-005 0.00292621 0 398.186
-0.000106737 0.00293051 0 397.625
0.00275932 0.0110589 0 214.772
0.000556951 0.00340784 0 160.14
0.000399007 0.0063813 0 117.305
-4.55764e-005 0.00288684 0 402.861
5.78688e-005 0.00240298 0 406.856
-0.00135948 0.0128543 0 147.124
0.00105587 0.00489705 0 126.616
-0.00180772 0.00736401 0 170.878
8.62884e-005 0.0107917 0 93.7943
-1.73838e-005 0.00299616 0 382.063
-0.000559779 0.00402893 0 151.271
-0.000129894 0.00339006 0 213.52
-0.00108645 0.0209701 0 184.725
-0.000355289 0.00318516 0 170.924
6.75287e-005 0.00268766 0 416.338
-1.6399e-005 0.00282695 0 408.288
0.000375645 0.00184967 0 362.151
0.000226595 0.00318087 0 209.632
-0.00157723 0.0197887 0 157.668
0.000153682 0.00302297 0 193.684
-0.000983791 0.00376429 0 185.804
0.00320404 0.0139037 0 175.516
-0.000399729 0.0051532 0 132.062
-8.43671e-005 0.0028893 0 401.418
0.00153091 0.0204307 0 170.925
0.0023948 0.0125217 0 185.23
0.000662239 0.00525468 0 128.335
-0.00103759 0.0179087 0 165.859
-0.00194218 0.00558429 0 222.835
-0.000960129 0.00376594 0 180.226
-0.000309837 0.00306474 0 247.269
0.00162461 0.00920594 0 158.021
0.00346181 0.0203111 0 141.432
0.000412094 0.000782235 0 299.876
4.10836e-005 0.00290739 0 405.842
0.00107752 0.00513333 0 124.076
-0.00139776 0.00696247 0 124.507
5.83714e-005 0.0023895 0 405.957
0.000501828 0.0119171 0 128.385
-2.97555e-005 0.00300349 0 377.75
0.00113092 0.00612109 0 115.466
3.11664e-005 0.00285722 0 409.438
-0.000756348 0.0223669 0 179.644
0.000606022 0.00322532 0 244.712
0.00858419 0.0213223 0 125.885
0.00228739 0.00873166 0 189.927
-0.00330691 0.0124678 0 185.019
-0.00135503 0.018735 0 157.409
-0.00782909 0.0173425 0 127.815
0.000179373 0.00168518 0 337.65
0.000181353 0.0228576 0 179.409
0.00116853 0.00608209 0 115.181
0.00534216 0.0272787 0 194.052
0.000808836 0.00340365 0 237.518
-0.00176706 0.00728799 0 170.688
0.000366125 0.00308127 0 261.074
0.000142062 0.00271694 0 420.995
0.000456136 0.0264018 0 181.819
0.000149779 0.00301624 0 217.621
8.09965e-005 0.015903 0 184.699
3.07264e-005 0.00286231 0 409.073
-0.000148146 0.00339011 0 212.396
-0.0064378 0.0277565 0 199.948
0.00072806 0.00532362 0 127.066
-0.00065633 0.00335203 0 185.86
-0.000360464 0.000878987 0 300.303
-9.67537e-005 0.00295742 0 393.608
-0.000484113 0.00948683 0 96.9989
-0.000565445 0.00399845 0 152.241
0.000588623 0.00111811 0 299.707
0.000130395 0.00304539 0 234.467
0.000107754 0.00285149 0 415.738
0.00165731 0.0250536 0 166.994
0.00285988 0.0119675 0 238.216
-9.54028e-005 0.00428588 0 155.524
-0.000124414 0.00317156 0 250.151
-0.00814733 0.0285856 0 213.519
-0.000216377 0.0031251 0 200.421
0.00549751 0.012219 0 295.545
-0.00550796 0.012201 0 349.055
0.00287309 0.0132504 0 185.705
0.000396043 0.00090361 0 300.415
-9.96587e-005 0.00294535 0 395.69
-0.00215947 0.00674928 0 201.462
-0.000289559 0.000893856 0 300.585
0.00184728 0.00894591 0 164.752
-0.000404895 0.00611192 0 119.363
-0.00085135 0.00350535 0 206.242
3.34633e-006 0.00298331 0 388.028
0.00378526 0.0199019 0 143.392
-0.000528492 0.024373 0 173.348
-0.000842118 0.0116133 0 135.161
-0.00298148 0.0188909 0 141.985
5.9556e-005 0.0025331 0 413.474
-0.000468824 0.00121303 0 303.127
9.1581e-005 0.0171817 0 195.879
-0.00127026 0.0113439 0 142.9
0.00402234 0.0130084 0 157.35
-0.000363163 0.00496329 0 134.925
-0.00609252 0.0268039 0 180.732
0.000283831 0.00172705 0 343.601
-0.000884834 0.00452052 0 132.832
0.000104251 0.00312707 0 274.751
0.00028648 0.000908897 0 300.789
0.00627587 0.0218045 0 136.59
0.000138189 0.00301242 0 221.311
-8.45766e-005 0.00300744 0 356.965
-0.000367296 0.0115469 0 115.847
4.43738e-005 0.00303088 0 363.74
0.00481648 0.0179238 0 145.177
0.00149749 0.00436073 0 250.151
0.00128386 0.00510424 0 130.66
-0.000137123 0.00279496 0 404.573
0.00010392 0.0048879 0 139.28
-0.00091848 7.16259e-005 0 299.989
3.54985e-006 0.00298714 0 386.783
0.000749152 0.00426831 0 141.595
-0.000130195 0.00286367 0 402.709
0.00513916 0.0264131 0 174.998
-0.00145383 0.00693267 0 135.815
-0.000170314 0.00271408 0 405.439
0.000708754 0.00344963 0 165.157
0.000173403 0.0026398 0 422.794
0.00102924 0.00397184 0 162.18
7.04719e-005 0.00292897 0 405.819
-0.000154347 0.00277069 0 404.961
0.000152777 0.00306484 0 219.441
-0.0057264 0.0155753 0 138.994
-0.00516063 0.0124211 0 331.736
-0.000727401 0.00332353 0 245.349
0.00177507 0.00499121 0 238.992
-0.00104148 0.00729487 0 105.669
8.03056e-005 0.00285902 0 412.925
0.000619507 0.00322392 0 262.618
0.000491741 0.00344599 0 165.225
-8.64345e-005 0.00319528 0 260.485
0.000495863 0.00327729 0 163.322
0.00629165 0.0165428 0 127.574
-0.000348261 0.00373379 0 170.327
0.00695359 0.012557 0 301.561
-0.00614658 0.0186042 0 137.224
0.00446424 0.0221677 0 138.117
-0.000789844 0.00391708 0 141.897
0.000117774 0.00196522 0 366.298
-0.000255362 0.0148691 0 168.87
-0.00503812 0.0284552 0 211.251
-0.000107009 0.00253653 0 405.648
0.000146628 0.00274959 0 421.12
0.00773255 0.0309094 0 234.353
0.000159147 0.00499252 0 137.316
0.000514649 0.00313677 0 319.378
0.00101358 0.00492618 0 126.815
-0.00010231 0.00251506 0 405.118
-0.000149253 0.0149017 0 177.825
-0.0026764 0.0106555 0 202.692
-0.000401914 0.00497223 0 132.812
-9.9778e-005 0.00250395 0 404.816
-0.000167489 0.00307565 0 211.202
0.00547148 0.0254757 0 145.816
6.86885e-005 0.00304125 0 341.779
-0.00443178 0.028435 0 211.748
-9.60567e-005 0.00299261 0 384.293
0.00605816 0.0243911 0 133.801
-0.00166852 0.0218177 0 174.646
3.51271e-005 0.00306949 0 338.414
0.00934401 0.0252145 0 154.085
0.000689131 0.0161709 0 160.414
-0.00185288 0.0231304 0 171.913
-0.000635695 0.0147353 0 145.913
0.000424951 0.000378919 0 299.978
3.11571e-005 0.00341221 0 220.661
-0.00451594 0.0239154 0 127.895
4.55634e-005 0.00300278 0 381.914
-0.000190882 0.0026229 0 404.839
-0.00293428 0.0314144 0 237.909
0.000192455 0.0109275 0 93.6677
-7.99306e-005 0.00301235 0 353.771
-0.000103784 0.019352 0 198.096
0.000298059 0.00179298 0 351.99
0.000318272 0.00306073 0 264.375
4.79498e-005 0.00267219 0 415.198
0.000550505 0.00439983 0 144.203
-6.64966e-005 0.00296368 0 390.807
-0.000353929 0.0037557 0 168.872
0.00136689 0.00417221 0 236.98
0.000288631 0.0043673 0 150.864
-0.000116817 0.00316526 0 254.664
0.000228982 0.00477361 0 140.553
-0.00010849 0.00292752 0 398.019
0.00158742 0.0252298 0 166.58
0.00029744 0.00214644 0 397.938
0.00012001 0.0179918 0 199.993
-2.8464e-005 0.00302556 0 366.483
-0.000121369 0.00301027 0 189.894
-0.000613293 0.003423 0 154.056
0.000416492 0.000739339 0 299.816
0.00607599 0.0132862 0 225.774
-0.000118426 0.00301015 0 188.484
0.000338231 0.0030745 0 247.368
-0.000760719 0.00047075 0 298.695
-0.000159712 0.00339978 0 210.498
0.00621185 0.0259584 0 161.975
-0.000407926 0.00403608 0 156.051
5.21801e-005 0.0048277 0 141.106
0.00820777 0.0174274 0 122.225
-0.000651027 0.00328042 0 220.216
-8.91944e-005 0.00296269 0 392.004
-0.000640908 0.0223311 0 180.843
0.00498206 0.0148716 0 147.475
-0.000133404 0.00280466 0 404.435
-0.00284514 0.0101497 0 242.526
0.00015129 0.00247549 0 417.052
0.0036537 0.0164932 0 154.573
0.000170347 0.00269813 0 423.099
-0.00192463 0.00759706 0 171.708
-0.00146113 0.00452985 0 203.566
0.00164564 0.0109866 0 150.427
0.00153691 0.0307746 0 236.242
0.000402223 0.00321336 0 168.117
-0.000561587 0.00118082 0 299.924
-0.00107178 0.00734408 0 105.437
-4.6988e-005 0.00292472 0 398.536
0.000121356 0.00262665 0 419.42
-0.00180667 0.021881 0 171.473
-0.000301986 0.0030856 0 195.515
-0.000116548 0.00289513 0 400.95
0.000683718 0.0116885 0 131.418
-0.000354426 0.00170815 0 331.618
0.000168525 0.00302989 0 197.924
0.0016288 0.00554363 0 187.103
-0.000454254 0.00780077 0 105.073
9.99188e-005 0.00299126 0 398.833
-0.000923631 0.00351832 0 242.775
-0.000513771 0.00531417 0 126.038
-0.000134682 0.0174176 0 197.933
0.000245462 0.00302872 0 304.04
-0.00010594 0.00296983 0 394.37
0.000263028 0.00390471 0 169.581
0.000668464 0.00324245 0 301.971
-0.00016736 0.00267447 0 405.465
9.47415e-005 0.00371123 0 186.606
0.00421743 0.0282356 0 210.402
0.000517536 0.00330043 0 162.035
7.86006e-005 0.00301308 0 363.238
-0.00150253 0.0233222 0 173.142
3.50244e-005 0.00343033 0 218.969
0.00521285 0.0268086 0 184.558
-2.25255e-005 0.00298419 0 386.071
0.000210866 0.0048041 0 140.111
-0.00060708 0.0165096 0 172.433
0.00212885 0.0061951 0 226.942
-2.66592e-005 0.00312601 0 306.639
-0.00828018 0.0153779 0 187.31
-0.00170476 0.0244237 0 169.631
-2.90915e-005 0.00298341 0 385.916
-0.00185381 0.0061466 0 180.787
3.45393e-006 0.00277635 0 411.331
0.00147734 0.00677235 0 146.674
0.00789347 0.0314466 0 236.394
-0.00613399 0.0273266 0 192.344
6.50073e-005 0.00218408 0 387.905
-0.00147779 0.0231807 0 173.908
-0.000188401 0.00264524 0 405.13
-0.00075172 0.0114273 0 132.248
0.00122718 0.0181316 0 157.501
-0.000212778 0.0261997 0 176.225
-0.000849183 0.00348376 0 214.508
0.00262104 0.0134155 0 182.445
1.27232e-005 0.00293823 0 399.508
0.000154311 0.000143575 0 300
0.00227939 0.00864795 0 190.766
-0.000341661 0.00336084 0 181.94
-0.00187213 0.00737965 0 171.57
-0.000325102 0.00324186 0 182.677
0.00106283 0.00405371 0 162.916
0.00306202 0.0160229 0 158.862
-0.00125502 0.0209796 0 181.388
-0.000371653 0.00205944 0 369.254
-6.26965e-005 0.00321945 0 259.28
0.00162374 0.026075 0 174.979
2.10167e-006 0.00278249 0 411.061
-0.0055484 0.0286456 0 213.585
0.00015094 0.0013019 0 310.361
0.000698722 0.0033001 0 243.953
-0.000209116 0.00313022 0 205.753
0.000178301 0.00263421 0 423.015
-0.000170601 0.00241911 0 399.482
6.51233e-005 0.00278293 0 414.882
0.000796117 0.00012178 0 299.996
-0.00585119 0.020535 0 134.342
-0.000609924 0.00122633 0 299.024
-0.000102624 0.00304973 0 281.104
0.00514232 0.0257801 0 156.666
-0.00828702 0.0225688 0 126.608
-0.000614799 0.00344241 0 151.982
-0.00151189 0.0188183 0 151.259
-3.25492e-005 0.0029848 0 385.189
0.00054607 0.027935 0 210.884
-0.000162612 0.00307065 0 213.789
0.00170386 0.00536783 0 196.436
0.000122657 0.00246052 0 414.345
0.000114118 0.00372299 0 185.173
0.000279019 0.00175174 0 346.421
-0.00259204 0.0130168 0 184.676
0.0051502 0.0128645 0 217.633
-9.8562e-005 0.00342344 0 212.997
-0.000685127 0.00529569 0 126.426
-0.000466511 0.00313725 0 255.265
0.000190709 0.00268308 0 424.327
0.000395417 0.00366064 0 171.274
0.000169582 0.00301879 0 243.282
-0.00265958 0.00992127 0 211.097
-0.00519759 0.0137459 0 166.111
-0.000114222 0.00289247 0 400.986
2.13384e-005 0.00287136 0 407.792
0.000112396 0.0030073 0 202.428
-0.000364131 0.0125976 0 126.212
0.000638801 0.0281464 0 213.188
-7.63196e-005 0.00301224 0 357.251
0.00647815 0.0133628 0 246.882
0.000321473 0.00338261 0 189.688
-0.00275906 0.0101546 0 229.803
-0.00198739 0.00761012 0 173.212
-0.00766429 0.0300439 0 228.161
-0.000176722 0.00312882 0 221.984
-0.00800327 0.0218525 0 128.062
0.00020237 0.00307009 0 190.507
-0.000414328 0.00346374 0 171.971
-0.000653425 0.00100717 0 296.673