# U  FACE_DATA 23640
#  x  y  z  U_x  U_y  U_z  
-0.00296834 0.0159323 0 -653.043 3444.28 0
0.000794309 0.0100339 0 -22.3078 3764.6 0
0.00690979 0.0130745 0 1383.63 747.196 0
0.000158008 0.0018211 0 -20.4369 141.763 0
-0.000662165 0.0113619 0 439.54 3232.29 0
-0.00203768 0.00587959 0 -688.254 2568.88 0
-0.000220137 0.00748479 0 -174.056 3541.21 0
0.00214531 0.0125841 0 -251.181 3049.29 0
-0.00164167 0.00702341 0 -426.385 3275.57 0
0.00020958 0.00306993 0 2835.72 808.67 0
4.59799e-005 0.00273939 0 -37.5789 523.956 0
0.00075606 0.00524313 0 1159.09 3169.65 0
0.00107075 0.0257944 0 412.92 3950.7 0
-0.000458708 0.0115994 0 397.81 3202.91 0
-0.000900467 0.00350322 0 -1780.7 1788.35 0
-0.00222355 0.00655891 0 -553.911 2635.03 0
0.00442703 0.0182294 0 1450.05 3738.69 0
7.09705e-005 0.00299924 0 -145.56 1281.84 0
-2.45517e-005 0.00292714 0 55.7345 890.724 0
-0.000543852 0.00394831 0 -1756.27 2696.17 0
7.98376e-005 0.00283498 0 -101.575 638.396 0
0.00510868 0.0124654 0 1321.41 375.997 0
7.37866e-005 0.00284217 0 -97.8992 654.952 0
-0.000122136 0.00287943 0 177.436 653.074 0
0.00117211 0.0120328 0 -407.233 3223.71 0
0.000340217 0.00636002 0 371.966 3442.56 0
-1.62375e-005 0.00331413 0 -127.508 2647.73 0
0.000288499 0.00391811 0 1000.32 2959.53 0
0.00604323 0.0215883 0 1744.66 3658.87 0
0.0015748 0.0199438 0 241.042 3797.35 0
0.000642306 0.0286533 0 158.47 3946.94 0
-0.000788091 0.000235815 0 -2.85514 4.75095 0
8.45076e-005 0.00283429 0 -106.643 633.768 0
-0.000766033 0.00453527 0 -1610.97 2879.48 0
-0.000556446 0.00360452 0 -2271.66 2040.71 0
-0.000694613 0.00330261 0 -2091.04 1525.89 0
0.00425461 0.0181246 0 1342.93 3668.22 0
0.00563158 0.0299784 0 939.083 4108.56 0
0.00374311 0.0125452 0 1847.32 1135.72 0
-0.000168184 0.00269727 0 118.288 437.359 0
0.00100487 0.00483203 0 1745.34 2871.66 0
-0.00170325 0.00704586 0 -379.232 3295.16 0
-0.00047461 0.0123053 0 619.803 3258.38 0
-0.00401905 0.0129379 0 -2353.73 1568.42 0
0.000128446 0.00148328 0 -16.274 87.5724 0
0.000108141 0.00315803 0 1169.86 2122.85 0
0.00299545 0.0176096 0 623.303 3691.57 0
0.00122698 0.00708374 0 1027.26 3361.17 0
0.000214903 0.00307399 0 2830.85 802.063 0
0.00225142 0.0126586 0 -246.651 3018.33 0
0.000204708 0.00068009 0 2.4709 17.0991 0
4.25297e-005 0.00299727 0 -81.2103 1242.71 0
-0.000477288 0.00315875 0 -2354.82 1177.2 0
-0.00378992 0.02149 0 -908.014 3795.27 0
0.000139812 0.00181138 0 -18.4293 139.572 0
0.000208917 0.00302796 0 1772.65 362.296 0
-0.00160791 0.0049468 0 -1013.72 2552.22 0
0.000941143 0.00995448 0 -180.508 3264.42 0
8.9442e-006 0.010956 0 21.1688 3587.21 0
-0.000434056 0.00133506 0 36.7585 107.402 0
0.000566946 0.0289715 0 132.481 3968.61 0
-7.40414e-005 0.003214 0 -724.114 2351.99 0
-0.000145493 0.00239699 0 52.0852 292.883 0
3.42483e-005 0.00298986 0 -73.2551 1189.19 0
0.000575544 0.00987125 0 322.17 3610.92 0
3.71363e-005 0.00299095 0 -79.2686 1197.59 0
-0.00247102 0.00772987 0 -391.596 2656.91 0
0.00096928 0.0118325 0 -449.743 3242.93 0
-9.22697e-005 0.00299969 0 221.29 1288.42 0
-0.000570617 0.0122505 0 607.449 3265.27 0
-0.000211411 0.00254812 0 93.8402 343.482 0
-0.000765289 0.00457715 0 -1609.45 2929.12 0
8.13068e-005 0.00294139 0 -177.659 878.072 0
-0.00437678 0.0203082 0 -1207.3 3685.33 0
0.00226862 0.00661101 0 574.21 2665.71 0
-0.000832194 0.000220534 0 -3.80212 7.58617 0
-0.000164868 0.00301134 0 -421.08 54.9697 0
0.0012393 0.0259768 0 474.686 3917.64 0
-2.48279e-005 0.00292318 0 55.7531 877.437 0
0.000116572 0.00245177 0 -38.59 308.253 0
9.77655e-005 0.00313112 0 1061.42 2040.67 0
0.000279024 0.00328636 0 2113.74 1902.51 0
-5.75605e-005 0.0116355 0 153.39 3469.37 0
-7.47936e-005 0.0117342 0 159.553 3463.87 0
0.000518168 0.00993111 0 297.248 3614.2 0
-0.000154608 0.0030256 0 -2681.02 572.974 0
4.53443e-005 0.00299839 0 -86.3335 1253.43 0
-0.000161071 0.0027724 0 140.489 483.883 0
0.000104836 0.00293916 0 -216.433 807.212 0
-0.00100104 0.00361077 0 -1634.36 1907.48 0
-0.000510005 0.00921774 0 -317.858 3616.13 0
0.00100295 0.0100141 0 -234.665 3275.07 0
-0.000646084 0.00336418 0 -2525.72 1558.37 0
6.96906e-005 0.00293287 0 -147.568 870.237 0
-1.67264e-005 0.00300289 0 31.4052 1268.64 0
0.000173509 0.0227352 0 76.0761 3813.44 0
3.17037e-005 0.00298455 0 -70.665 1155.33 0
0.000312244 0.00306502 0 2336.7 690.461 0
-0.00212604 0.00906512 0 -135.824 3033.16 0
-0.00049218 0.00322389 0 -2641.83 1203.63 0
0.000341345 0.00323843 0 2522.8 1407.54 0
-0.00385942 0.0216496 0 -909.212 3773.26 0
-0.000125834 0.0028813 0 180.017 642.736 0
0.00524627 0.0255212 0 1166.78 3853.31 0
0.000713781 0.0036837 0 2500.78 1956.21 0
0.00601727 0.0299149 0 995.285 4106.22 0
-0.000344095 0.00203632 0 55.9399 200.853 0
-0.0047341 0.0239481 0 -1120.42 3953.9 0
-0.000460773 0.00539436 0 -690.041 3329.25 0
-0.00196148 0.00905338 0 -84.9316 3120.4 0
0.00143807 0.0303782 0 263.143 4089.76 0
7.94637e-005 0.00293894 0 -171.08 872.58 0
0.00013473 0.00481908 0 290.139 3303.35 0
0.00105264 0.00484794 0 1787.5 2837.15 0
0.000112877 0.0030262 0 1940.38 1591.63 0
-0.00781161 0.0282885 0 -1387.76 3958.66 0
-0.000846622 0.00344471 0 -1830.67 1716.47 0
-0.00206201 0.0306837 0 -361.399 4121.94 0
-0.00313594 0.0160362 0 -796.647 3507.44 0
0.00144289 0.0198776 0 258.095 3768.94 0
-0.000135136 0.00286502 0 176.681 596.254 0
-0.000205101 0.000950881 0 3.56196 35.6287 0
0.000372212 0.00308853 0 2303.65 869.664 0
0.000370404 0.000795868 0 -1.88934 37.7936 0
0.000201681 0.00347815 0 1235.46 2648.33 0
-0.000147808 0.00278598 0 141.39 514.655 0
0.000218103 0.000637733 0 2.7209 13.8402 0
0.000195722 0.00313377 0 2298.03 1485.42 0
-0.00203813 0.00594128 0 -689.044 2603.57 0
0.00112067 0.00510142 0 1741.6 2932.75 0
5.16573e-005 0.00373385 0 245.756 2999.37 0
0.000381501 0.00336875 0 2292.57 1854.91 0
0.000860715 0.0258401 0 326.304 3973.63 0
-0.000116556 0.00339842 0 -830.283 2691.77 0
-0.00513668 0.0257477 0 -1168.61 3853.95 0
-0.000162894 0.00277847 0 142.099 485.579 0
8.27341e-005 0.00277738 0 -81.2104 556.044 0
0.0010674 0.0118759 0 -420.655 3228.51 0
-4.09992e-005 0.00275121 0 42.6641 539.052 0
3.29665e-005 0.00297369 0 -76.8806 1091.22 0
-0.00204547 0.0090065 0 -127.502 3057.22 0
-0.00160474 0.0048986 0 -1016.07 2540.27 0
8.25825e-005 0.00294819 0 -188.68 899.925 0
4.00473e-005 0.00273627 0 -31.906 521.169 0
-9.41642e-005 0.00295571 0 220.967 888.941 0
0.00150619 0.00997327 0 -133.087 3185.49 0
8.22134e-005 0.00268838 0 -56.9982 464.124 0
-0.000160791 0.00267895 0 108.982 432.557 0
-0.000596112 0.00909085 0 -358.666 3609.86 0
-9.31423e-005 0.00299701 0 263.278 1194.03 0
0.00235681 0.0126226 0 -211.778 2989.87 0
0.00203765 0.00557212 0 756.887 2364.37 0
-0.000165794 0.0115731 0 163.316 3451.65 0
6.0159e-005 0.0021996 0 -8.51481 221.606 0
0.000371981 0.00362464 0 1716.24 2538.14 0
-0.00733688 0.029685 0 -1181.86 4068.79 0
-0.000180414 0.00743151 0 -163.632 3569.42 0
-0.000357207 0.004885 0 -645.66 3257.57 0
0.00253943 0.00813968 0 353.616 2711.54 0
-1.29377e-005 0.00332967 0 -95.3625 2637.2 0
-0.0010235 0.00361199 0 -1568.65 1856.65 0
-0.000285329 0.0030748 0 -2673.92 755.167 0
-0.000681311 0.00329291 0 -2096.57 1515.28 0
-0.00260727 0.00895038 0 -240.125 2637.29 0
0.00788717 0.0276195 0 1476.64 3885.75 0
0.0089704 0.0287411 0 1440.67 3968.75 0
-0.000270534 0.00232157 0 72.3916 263.96 0
-0.00014416 0.00312601 0 -1676.53 1774.5 0
-0.000337662 0.00201762 0 53.4535 197.841 0
0.0003962 0.00337513 0 2319.41 1845.9 0
0.00121317 0.00701782 0 1028.92 3354.37 0
0.000116206 0.00302915 0 2039.55 1516.28 0
0.00225197 0.00666935 0 557.536 2669.99 0
-0.000507665 0.00548922 0 -733.334 3321.29 0
-0.000231863 0.00226746 0 59.1187 252.116 0
0.000244361 0.00226851 0 -52.7295 231.14 0
0.00111028 0.00505498 0 1740.74 2905.63 0
0.000121223 0.00304184 0 2127.99 1659.68 0
0.00012049 0.00243938 0 -38.8017 302.288 0
-0.0013386 0.0186068 0 91.9691 3815.81 0
0.000102064 0.00149733 0 -13.3808 88.669 0
0.000147362 0.00301363 0 1735.86 347.597 0
0.00106981 0.0119939 0 -426.265 3223.56 0
-0.000365953 0.00411169 0 -1109.52 2994.24 0
0.00557444 0.020358 0 1685.65 3610.1 0
4.86089e-005 0.00307386 0 306.67 1842.09 0
-0.000177413 0.0035472 0 -974.354 2760.91 0
-0.000632994 0.00339325 0 -2618.51 1425.23 0
0.000487307 0.00130985 0 -42.4901 120.364 0
-0.000349424 0.00402777 0 -1098.55 2978.5 0
-0.00177251 0.00629586 0 -604.798 3020.67 0
-7.92525e-005 0.00273084 0 71.7522 507.981 0
0.000241714 0.00100077 0 -11.3422 44.0649 0
-0.000154516 0.0114773 0 162.252 3466.46 0
0.00502442 0.0222916 0 1249.01 3799.47 0
-0.000166546 0.00272686 0 125.348 453.864 0
0.000707598 0.00365891 0 2482.15 1902.27 0
-0.00157418 0.0046046 0 -1063.86 2359.9 0
0.000122725 0.00301099 0 2112.1 630.482 0
0.000172305 0.00324558 0 1576.07 2160.61 0
7.46185e-006 0.00286175 0 -8.068 718.721 0
0.00533293 0.0140838 0 2771.74 1760.6 0
0.00520504 0.0284215 0 1011.12 4024.83 0
-0.00170266 0.00713636 0 -386.386 3301.87 0
4.38765e-005 0.00290514 0 -80.9207 812.604 0
0.00035679 0.0099507 0 201.57 3600.58 0
0.000120447 0.00300871 0 2011.99 633.783 0
7.85992e-005 0.00284146 0 -103.069 650.061 0
0.000146556 0.00306157 0 2296.11 1382.74 0
-0.000265484 0.00230758 0 69.8718 261.31 0
-0.000558184 0.0114136 0 392.516 3250.33 0
0.000873988 0.011905 0 -484.364 3245.08 0
0.00195145 0.0157285 0 -158.064 3470.42 0
0.000415959 0.00988952 0 215.528 3610.33 0
0.00204861 0.00551694 0 774.24 2340.06 0
0.00159497 0.00893937 0 -3.88844 3218.96 0
0.00125366 0.00690066 0 1079 3349.08 0
-0.000537482 0.00397822 0 -1734.18 2738.38 0
-0.00245206 0.00890865 0 -229.93 2808.13 0
-0.00591638 0.015069 0 -2981.75 2456.71 0
0.00182541 0.0157696 0 -228.31 3488.48 0
-6.39179e-005 0.00274368 0 62.2099 526.361 0
1.24162e-005 0.00286011 0 -15.2856 714.564 0
0.000785526 0.00520879 0 1189.34 3155.9 0
0.000119132 0.00288179 0 -175.398 663.692 0
0.000107617 0.00492998 0 210.058 3312.74 0
-0.000398708 0.00617064 0 -460.526 3417.81 0
-0.00031795 0.000861625 0 2.9168 35.1286 0
-0.0054742 0.0145195 0 -2970.09 2345.43 0
-0.00050603 0.0093045 0 -317.967 3617.96 0
-0.00281713 0.0160093 0 -544.399 3492.2 0
-0.00521587 0.0225645 0 -1341.91 3784.27 0
0.000631138 0.00410172 0 1769.82 2688.03 0
0.00077675 0.0118594 0 -501.857 3261.48 0
-0.000339893 0.00491785 0 -630.397 3281.17 0
0.000278502 0.0033019 0 2092.7 1972.79 0
-0.000206291 0.0025551 0 95.4252 349.567 0
0.0015782 0.00885327 0 -14.866 3228.32 0
-0.000601058 0.00917374 0 -360.226 3605.28 0
0.000107852 0.00308374 0 1264.5 1867.18 0
0.000329157 0.00324408 0 2463.69 1477.32 0
-0.000107456 0.0030138 0 -1753.25 1589.97 0
0.000995869 0.00478803 0 1776.01 2846.42 0
-0.00176263 0.00715431 0 -350.393 3230.3 0
0.000133123 0.00190024 0 -17.2964 153.94 0
0.00428452 0.0222831 0 1012.87 3856.07 0
0.00249322 0.0134845 0 17.2558 3162.95 0
0.000209201 0.00303326 0 2298.26 457.9 0
1.124e-005 0.00241342 0 1.93014 298.569 0
-0.000138897 0.00282521 0 154.942 560.06 0
-0.000422518 0.00130967 0 34.9468 101.413 0
0.000897928 0.00602889 0 1050.97 3289.55 0
0.00296246 0.0177704 0 617.791 3665.44 0
-0.000240922 0.0022558 0 59.7489 248.614 0
0.000161456 0.0106342 0 71.0538 3582.22 0
-0.000169117 0.00269067 0 116.537 433.252 0
-0.00600599 0.0132277 0 -2288.33 612.402 0
-0.00498542 0.0226529 0 -1255.37 3829.75 0
0.00035646 0.00189436 0 -43.1198 159.83 0
0.000360867 0.00193124 0 -44.7591 161.736 0
0.000188008 0.00159518 0 -23.035 107.787 0
0.00315697 0.0294361 0 615.494 4091.9 0
0.000380728 0.00331446 0 2429.67 1604.02 0
-0.000407732 0.00541329 0 -597.899 3349.33 0
0.00599218 0.0187772 0 2101.64 3499.19 0
-0.000475668 0.0124289 0 643.812 3264.95 0
9.243e-005 0.00339173 0 631.85 2679.84 0
-0.0022067 0.00902531 0 -163.008 2965.49 0
0.000138287 0.010546 0 72.8447 3589.93 0
-4.59787e-005 0.00300592 0 73.5325 1308.86 0
0.000475334 0.00325723 0 2820.87 1136.83 0
0.0081269 0.0233608 0 2205.42 3540.48 0
-0.000136448 0.00286953 0 173.863 587.37 0
0.000465099 0.00132931 0 -42.0892 117.172 0
0.000196949 0.00312437 0 2330.51 1428.47 0
-0.000725979 0.00459524 0 -1502.41 2968.39 0
0.00566025 0.0201173 0 1715.06 3639.17 0
-0.000237093 0.000937504 0 4.34306 36.029 0
-7.15727e-006 0.00298867 0 19.3897 1178.78 0
-0.000556128 0.00552312 0 -759.171 3306.39 0
-0.000151452 0.00278159 0 139.181 505.575 0
0.00604583 0.0167381 0 2581.44 2979.15 0
5.44524e-005 0.00307484 0 378.504 1848.65 0
3.5211e-005 0.00270778 0 -24.4445 492.098 0
-0.00210731 0.0068781 0 -512.813 2841.51 0
8.91266e-005 0.00319599 0 880.086 2288.83 0
-0.00242079 0.00974735 0 -123.949 2896.69 0
0.00135885 0.00413507 0 1285.48 2179.54 0
-0.00108228 0.00797081 0 -781.311 3496.24 0
3.29303e-005 0.00271504 0 -22.922 499.83 0
-0.000508078 0.0208168 0 -226.926 3713.13 0
-0.00472826 0.0198065 0 -1365.08 3583.65 0
0.00152826 0.0090827 0 -27.5237 3270.26 0
-0.00252462 0.00897287 0 -218.479 2772.5 0
-4.09377e-005 0.0027578 0 43.6097 547.015 0
-0.00186927 0.0116808 0 220.573 3094.99 0
0.00108447 0.00518193 0 1636.04 2980.57 0
-0.00419392 0.0202211 0 -1156.46 3697.85 0
0.000296615 0.00594885 0 366.32 3418.45 0
0.00365557 0.0156923 0 1151.71 3320.91 0
-0.000138643 0.00311989 0 -1624.86 1778.08 0
3.44704e-005 0.00298593 0 -76.6521 1163.91 0
-0.000249911 0.000891772 0 2.04126 33.5728 0
0.00110337 0.0099601 0 -260.057 3267.1 0
8.04689e-005 0.00279643 0 -85.942 581.194 0
0.00779157 0.0249956 0 1896.31 3687.54 0
0.000351464 0.00337107 0 2233.55 1960.63 0
-0.00012879 0.00323538 0 -1223.63 2302.22 0
0.000155895 0.00168996 0 -19.8439 120.112 0
8.56943e-005 0.00294739 0 -194.262 889.432 0
0.0053023 0.0238774 0 1252.05 3906.03 0
0.000238423 0.00318026 0 2291.67 1510.14 0
0.000230406 0.00226533 0 -49.3922 231.641 0
-5.15866e-005 0.00292996 0 113.684 880.523 0
2.57476e-005 0.00286927 0 -37.5959 731.534 0
0.000105066 0.00340141 0 710.719 2664.75 0
-0.0006343 0.00341198 0 -2627.78 1453.51 0
-0.00683177 0.0130924 0 -1746.76 544.343 0
-1.54609e-005 0.00299907 0 31.4889 1243.23 0
-0.00215958 0.00656839 0 -560.431 2739.73 0
0.00301179 0.0141363 0 731.063 3214.17 0
-0.000723924 0.00463742 0 -1482.57 2973.43 0
-0.000555458 0.00358088 0 -2296.13 2018.16 0
0.000287933 0.00394954 0 987.926 2977.66 0
-0.00525881 0.0259389 0 -1188.28 3836.66 0
-0.000235386 0.00314485 0 -2432 1287.45 0
-0.000664883 0.00104525 0 46.4032 149.104 0
0.00182857 0.0107598 0 -101.941 3099.3 0
0.00289308 0.0133881 0 492.592 3036.16 0
0.000556851 0.000459359 0 5.30595 11.9188 0
-6.31462e-005 0.00306344 0 -401.555 1805.32 0
0.00204396 0.0126442 0 -273.869 3070.97 0
-0.000369072 0.00408052 0 -1124.48 2980.69 0
-0.00018247 0.00378321 0 -721.108 2925.56 0
0.000579156 0.0162179 0 -456.643 3496.19 0
0.00117061 0.0100074 0 -238.638 3258.93 0
0.000129771 0.00301154 0 1932.11 421.376 0
0.00050022 0.00329429 0 2795.95 1220.06 0
-0.00194273 0.0117557 0 221.339 3046.09 0
0.000295066 0.00600891 0 365.031 3420.59 0
-0.000154748 0.0030213 0 -2269.03 548.964 0
8.51353e-005 0.00297491 0 -227.41 1015.06 0
0.000370749 0.00364798 0 1679.26 2560.91 0
0.00032381 0.000892659 0 -7.56119 42.8204 0
-0.000114683 0.00273658 0 100.607 500.505 0
7.10543e-005 0.0030026 0 -129.797 1323.81 0
-9.6647e-005 0.00324264 0 -904.307 2386.76 0
0.000733896 0.00537107 0 1058 3221.88 0
0.000155197 0.00494735 0 269.87 3321.56 0
0.000610019 0.00412319 0 1721.64 2748.22 0
0.000353717 0.00194986 0 -45.1118 166.197 0
-0.000244432 0.00314026 0 -2503.15 1200.86 0
-0.00502653 0.0232658 0 -1242.73 3894.45 0
-0.00178789 0.0309983 0 -303.207 4123.75 0
-0.000579723 0.00361754 0 -2269.53 2030.65 0
0.00813841 0.0273314 0 1544.92 3842.67 0
-0.002496 0.0131044 0 83.3139 3012.21 0
-0.00431729 0.0290645 0 -841.837 4086.12 0
-0.000157683 0.00240005 0 55.8701 293.654 0
-6.09633e-005 0.00273787 0 57.974 520.298 0
-0.000172602 0.00356894 0 -921.407 2783.61 0
5.95493e-005 0.00280503 0 -66.0366 603.044 0
3.59382e-005 0.00297531 0 -84.4617 1099.05 0
0.0038221 0.0156522 0 1284.13 3288.02 0
0.00151814 0.00899556 0 -26.5974 3269.84 0
0.00891208 0.0209237 0 2815.88 3049.31 0
0.00932881 0.0247628 0 2223.32 3504.34 0
0.000401147 0.00319889 0 2836.76 1002.93 0
-1.37134e-005 0.00292236 0 32.3146 878.608 0
-0.00149883 0.0199029 0 -289.427 3767.19 0
-0.000151382 0.00307642 0 -2132.99 1389.69 0
-9.99299e-005 0.00297786 0 259.009 929.089 0
0.00528439 0.0241343 0 1254.78 3892.27 0
2.61097e-005 0.00286432 0 -37.214 720.805 0
0.000206875 0.00349712 0 1234.32 2644.24 0
-0.00509797 0.0234717 0 -1242.73 3885.38 0
-0.000597722 0.000953511 0 36.4239 105.793 0
-0.00793898 0.0155863 0 -3266.56 1946.29 0
0.00183935 0.0106624 0 -98.2148 3079.42 0
7.52069e-005 0.00339368 0 518.846 2708.9 0
-7.77056e-005 0.00294222 0 175.586 885.667 0
-9.8985e-005 0.00297992 0 262.733 943.291 0
0.00161823 0.00911669 0 -29.1087 3241.02 0
8.21842e-005 0.00297527 0 -218.336 1028.34 0
-0.00188133 0.00900925 0 -79.7623 3234.25 0
-0.00617827 0.0275965 0 -1231.17 3932.91 0
-0.000490092 0.00321051 0 -2612.44 1221.76 0
0.00945115 0.0288751 0 1452.91 3978.21 0
-0.00016434 0.00272067 0 123.601 454.528 0
-0.00797941 0.0222445 0 -2302.66 3379.36 0
-4.01564e-005 0.00301654 0 32.3123 1387.92 0
-0.00180498 0.00506765 0 -907.335 2383 0
-0.000161305 0.00301261 0 -765.885 112.538 0
-0.000482063 0.00316965 0 -2363.69 1188.26 0
-0.000942791 0.00378901 0 -2098.2 2073.75 0
-0.000134053 0.00282435 0 152.908 570.178 0
0.000242746 0.000963685 0 -9.4301 41.6644 0
0.00525461 0.0274919 0 1097.45 3945.34 0
0.00306352 0.0179257 0 625.813 3698.01 0
-0.000120066 0.00324295 0 -1132.77 2334.74 0
-0.00319507 0.0125029 0 -1478.07 2356.33 0
-0.000290892 0.00233844 0 77.775 262.359 0
0.00159844 0.00482417 0 1038.79 2501.93 0
0.00787978 0.0236538 0 2116.87 3687.82 0
0.00145057 0.0259009 0 552.987 3919.39 0
-0.000336257 0.00619409 0 -393.008 3428.06 0
-0.000333917 0.00172186 0 37.3797 145.392 0
0.00577509 0.0216659 0 1600.46 3684.25 0
0.000667048 0.00332313 0 2285.85 1645.79 0
0.00248969 0.00807562 0 345.58 2793.56 0
-0.00160944 0.00467215 0 -1049.22 2390.44 0
1.98969e-005 0.00242157 0 -1.42391 301.949 0
0.000286635 0.0021356 0 -47.8545 196.429 0
-0.00161117 0.00618199 0 -662.648 3200.13 0
7.54635e-005 0.00268391 0 -51.6675 461.76 0
0.00101663 0.00497361 0 1688.9 2953.99 0
9.78423e-005 0.00320089 0 952.566 2277.73 0
-0.000282098 0.0245537 0 -133.975 3964.77 0
0.00160534 0.0053807 0 909.617 2868.01 0
0.000645555 0.00426047 0 1639.16 2816.2 0
0.000344665 0.00191282 0 -42.0812 161.381 0
-4.37224e-005 0.0030135 0 44.0489 1367.58 0
0.000410526 0.00592784 0 521.911 3387.31 0
-0.00161438 0.00462874 0 -1027.05 2285.25 0
0.000197339 0.00307463 0 2796.5 939.862 0
-0.00787948 0.0250527 0 -1881.22 3630.01 0
0.000365567 0.000836364 0 -4.62949 41.1958 0
0.000428529 0.0031113 0 2179.34 955.586 0
6.29689e-005 0.00280138 0 -69.1443 595.645 0
-0.00260928 0.0115127 0 46.4008 2834.4 0
0.00511854 0.0182191 0 1705.25 3451.82 0
-0.000191506 0.0013612 0 14.5431 74.1718 0
0.000255298 0.00234631 0 -65.9996 249.618 0
7.80872e-005 0.00285378 0 -108.105 670.857 0
-6.93966e-006 0.00361778 0 -26.0696 2945.27 0
-0.000112834 0.00273034 0 96.6039 495.376 0
-0.000151306 0.00308356 0 -2059.17 1456.47 0
0.000794921 0.00339323 0 1951.15 1731.4 0
0.000120559 0.00308016 0 1517.23 1795.8 0
-0.00060963 0.000994212 0 39.481 119.411 0
-0.000187211 0.00375918 0 -795.348 2920.73 0
-0.000179749 0.00239602 0 61.4503 291.203 0
0.000583853 0.00320912 0 2152.9 1360.53 0
-0.000220391 0.00307379 0 -2735.72 785.576 0
-3.20721e-005 0.00313154 0 -290.193 2090.76 0
-0.00240166 0.00829286 0 -316.262 2823.25 0
-0.000107553 0.0032363 0 -1028.18 2345.96 0
0.000485775 0.00324734 0 2808.96 1137.31 0
-1.6528e-005 0.00283252 0 25.1601 660.267 0
0.000388916 0.00319175 0 2855.67 999.247 0
-0.000191501 0.000101552 0 -0.0317029 0.0325842 0
-0.00244196 0.00780076 0 -380.407 2668.25 0
-0.000237142 0.00223825 0 56.9064 243.865 0
-0.00179252 0.00511195 0 -925.802 2461.79 0
7.86645e-005 0.00300926 0 -58.565 1447.9 0
-0.00578012 0.0268724 0 -1230.88 3868.08 0
-0.00101007 0.00801211 0 -732.06 3501.97 0
0.000363332 0.00337974 0 2217.47 1958.61 0
0.000391279 0.00186159 0 -45.69 156.021 0
0.000433244 0.00317308 0 2790.3 1043.04 0
0.00161612 0.00543442 0 888.853 2885.07 0
-0.00207993 0.00693738 0 -495.371 2850.71 0
0.000483914 0.00474879 0 933.986 3173.6 0
0.000802557 6.40842e-005 0 0.0167584 0.0223875 0
0.00066144 0.00330597 0 2250.11 1590.3 0
0.00141767 0.0197289 0 251.179 3781.1 0
-0.000651775 0.00329699 0 -2196.81 1498.4 0
0.000282152 0.00304241 0 1184.97 302.834 0
-0.000357054 0.00319624 0 -2692.31 1098.95 0
-0.00178284 0.00623412 0 -594.832 2913.99 0
3.8992e-005 0.00380209 0 172.454 3045.56 0
-0.00100109 0.0210667 0 -458.868 3698.05 0
0.000165033 0.00158259 0 -20.3794 104.358 0
0.00864187 0.0174253 0 3103.92 2236.48 0
0.00315453 0.0128329 0 1095.95 3035.67 0
-8.64597e-005 0.00318341 0 -880.024 2236.6 0
-0.000259494 0.0126492 0 630.474 3263.8 0
0.000466396 0.000355167 0 1.90112 1.9196 0
0.000246728 0.00318708 0 2317.23 1514.93 0
-0.000724122 0.000493878 0 2.56355 48.9956 0
-0.00236534 0.0089472 0 -210.382 2880.77 0
-0.00585899 0.0184819 0 -1975.4 3155.28 0
-0.000109395 0.00425783 0 -268.229 3190.38 0
-0.000225082 0.00307869 0 -2733.16 799.283 0
0.00116126 0.00383867 0 1499.64 2095.4 0
0.000146244 0.00305529 0 2471.99 1285.55 0
0.000106639 0.00285591 0 -144.534 646.652 0
0.00516349 0.0142403 0 2578.34 1819.6 0
-0.000547118 0.0281975 0 -147.306 3919.85 0
-0.00314055 0.0188201 0 -712.925 3754.74 0
6.39205e-005 0.0034062 0 443.907 2727.17 0
0.000746714 0.00049437 0 -8.58878 65.4832 0
0.00226648 0.0258744 0 871.274 3869.25 0
-0.000137355 0.00283875 0 158.74 572.492 0
0.00173233 0.0108179 0 -136.573 3132.63 0
-0.000334456 0.00625618 0 -374.323 3436.38 0
-0.000652252 0.00338145 0 -2534.94 1545.22 0
-6.89277e-005 0.00306466 0 -487.885 1833.19 0
0.000126795 0.00304178 0 2212.68 1527.37 0
0.00478399 0.0277755 0 1016.97 3994.41 0
0.000516287 0.0229306 0 231.775 3815.04 0
5.89116e-005 0.00254342 0 -23.7862 362.421 0
-0.00795861 0.0246948 0 -1942.72 3640.5 0
0.00133689 0.00999394 0 -178.69 3195.5 0
-0.000118825 0.0220921 0 -74.4159 3746.63 0
6.34909e-005 0.0107046 0 50.9325 3583.01 0
-0.000946741 0.00381309 0 -2164.79 2050.5 0
0.00581241 0.0241952 0 1439.79 3911.31 0
-0.00487736 0.01991 0 -1397.51 3634.75 0
0.00170829 0.0256098 0 670.258 3969.35 0
9.98067e-005 0.00316224 0 1060.24 2151.03 0
0.00308063 0.0142797 0 759.721 3253.3 0
-0.000279242 0.00307977 0 -2739.9 736.89 0
-0.000183934 0.00303725 0 -2683.37 632.585 0
7.83288e-005 0.00286324 0 -113.413 688.176 0
-0.000440884 0.00514493 0 -738.28 3297.2 0
0.000455558 0.00477565 0 875.747 3201.78 0
0.00520625 0.0221693 0 1365.71 3805.35 0
-0.00179507 0.00722781 0 -362.574 3175.29 0
5.54873e-005 0.00266826 0 -35.2177 452.059 0
-0.00157971 0.00456195 0 -1111.37 2260.31 0
4.18607e-005 0.00302762 0 16.6903 1484.91 0
-0.000194972 5.19224e-005 0 -0.0118174 0.00644345 0
-0.000846289 0.00342394 0 -1748.53 1619.47 0
-0.00105965 0.00823661 0 -714.717 3508.65 0
0.000163413 0.00479131 0 329.191 3294.75 0
-8.2874e-005 0.00288534 0 137.779 727.239 0
0.00157378 0.00552232 0 848.52 2965.03 0
-7.66839e-005 0.00293931 0 169.513 877.044 0
0.000101978 0.0109948 0 55.8583 3585.98 0
-0.000363872 0.00601296 0 -423.272 3418.71 0
0.000117978 0.00287815 0 -171.308 661.234 0
0.000219153 0.00318835 0 2153.49 1687.34 0
-0.00163196 0.00449872 0 -998.626 2002.87 0
-0.000221409 0.00303399 0 -2128.25 435.261 0
-0.000370966 0.0244074 0 -207.386 3922.23 0
-0.000466554 0.00315829 0 -2380.86 1153.69 0
0.000396164 0.00331941 0 2471.35 1577.59 0
-0.00482666 0.0238063 0 -1165.64 3937.34 0
0.00133411 0.00522841 0 1533.31 2811.48 0
-0.00267568 0.00982141 0 -142.093 2688.12 0
-0.000480207 0.0219659 0 -262.716 3744.61 0
0.00177473 0.0106071 0 -104.975 3132.75 0
0.000428512 0.00597987 0 524.465 3389.25 0
0.00330832 0.0202369 0 716.851 3770.15 0
-0.00036699 0.012473 0 636.052 3234.26 0
-0.000901486 0.00347959 0 -1690.91 1652.03 0
-9.70158e-005 0.00294708 0 215.463 853.338 0
-0.00110466 0.0144253 0 662.064 3430.29 0
-0.00107199 0.0143087 0 665.62 3464.56 0
0.000113095 0.0030798 0 1378.58 1835.6 0
0.000776547 0.0117402 0 -495.497 3271.16 0
-0.000196596 0.00302496 0 -1568.31 321.287 0
-0.00581483 0.0148124 0 -3056.9 2373.36 0
0.000125326 0.00308478 0 1590.81 1776.61 0
-0.00172589 0.0230235 0 -755.219 3813.78 0
-0.00123798 0.0114294 0 367.335 3243.25 0
-0.000106038 0.00301072 0 -1842.39 1827.96 0
7.68012e-005 0.00277918 0 -75.9514 561.181 0
-0.000218387 0.00226751 0 56.4328 250.946 0
0.00288382 0.0120736 0 -40.6845 2615.3 0
0.000136685 0.00272066 0 -104.384 468.738 0
0.00126396 0.00994364 0 -190.38 3246.57 0
0.000169734 0.00323168 0 1589.61 2130.27 0
3.33298e-005 0.00296283 0 -77.6142 1034.12 0
7.38909e-005 0.00285244 0 -101.848 671.438 0
0.00226662 0.00684142 0 536.041 2758.31 0
-4.80444e-005 0.00288948 0 86.6865 767.992 0
0.000117291 0.00304527 0 1772.76 1658.55 0
0.00044057 0.00316393 0 2774.29 1201.23 0
0.00025781 0.000139806 0 0.0596827 0.0712825 0
-0.000553437 0.0115383 0 445.483 3250.4 0
0.00174054 0.0109254 0 -136.204 3136.27 0
-0.00657824 0.0304887 0 -1036.02 4141.57 0
-0.00287878 0.0309438 0 -480.605 4149.17 0
-1.74214e-005 0.00292383 0 40.2663 882.356 0
0.000417861 0.00311152 0 2254.43 1024.76 0
-0.000158816 0.00302837 0 -2808.9 557.315 0
0.000540608 0.00339996 0 2658.44 1537.19 0
0.00322243 0.0179545 0 752.868 3640.43 0
-0.000159371 0.0013528 0 11.2011 70.6779 0
0.000126077 0.0159893 0 -18.8083 3353.6 0
-0.00432652 0.0294311 0 -808.372 4108.41 0
0.0015673 0.00546801 0 866.738 2976 0
-5.0904e-005 0.00292621 0 109.969 868.574 0
-0.000106737 0.00293051 0 208.191 776.705 0
0.00275932 0.0110589 0 28.0477 2748.15 0
0.000556951 0.00340784 0 2639.89 1503.99 0
0.000399007 0.0063813 0 428.691 3433.2 0
-4.55764e-005 0.00288684 0 80.8064 762.226 0
5.78688e-005 0.00240298 0 -14.1105 291.582 0
-0.00135948 0.0128543 0 445.916 3235.42 0
0.00105587 0.00489705 0 1776.84 2873.21 0
-0.00180772 0.00736401 0 -325.058 3166.44 0
8.62884e-005 0.0107917 0 48.6517 3584 0
-1.73838e-005 0.00299616 0 38.2651 1223.53 0
-0.000559779 0.00402893 0 -1737.53 2739.98 0
-0.000129894 0.00339006 0 -932.858 2638.34 0
-0.00108645 0.0209701 0 -469.843 3719.71 0
-0.000355289 0.00318516 0 -2698.97 1043.84 0
6.75287e-005 0.00268766 0 -46.5792 467.247 0
-1.6399e-005 0.00282695 0 25.0744 651.114 0
0.000375645 0.00184967 0 -44.0324 154.052 0
0.000226595 0.00318087 0 2233.54 1591.51 0
-0.00157723 0.0197887 0 -206.259 3831.05 0
0.000153682 0.00302297 0 2344.91 446.641 0
-0.000983791 0.00376429 0 -1843.6 2136.82 0
0.00320404 0.0139037 0 986.8 3094.53 0
-0.000399729 0.0051532 0 -645.297 3299.39 0
-8.43671e-005 0.0028893 0 143.758 734.165 0
0.00153091 0.0204307 0 419.292 3715.61 0
0.0023948 0.0125217 0 -202.701 2984.87 0
0.000662239 0.00525468 0 1010.69 3230.1 0
-0.00103759 0.0179087 0 273.824 3764.16 0
-0.00194218 0.00558429 0 -799.391 2560.54 0
-0.000960129 0.00376594 0 -1961.27 2145.23 0
-0.000309837 0.00306474 0 -2298.24 756.862 0
0.00162461 0.00920594 0 -34.6349 3230.78 0
0.00346181 0.0203111 0 770.822 3799.01 0
0.000412094 0.000782235 0 -2.23778 40.6044 0
4.10836e-005 0.00290739 0 -76.3556 821.059 0
0.00107752 0.00513333 0 1665.48 2958.11 0
-0.00139776 0.00696247 0 -947.504 3346.18 0
5.83714e-005 0.0023895 0 -13.3828 286.164 0
0.000501828 0.0119171 0 -586.628 3273.55 0
-2.97555e-005 0.00300349 0 54.4483 1277.26 0
0.00113092 0.00612109 0 1269.03 3255.9 0
3.11664e-005 0.00285722 0 -43.4405 704.488 0
-0.000756348 0.0223669 0 -366.132 3777.26 0
0.000606022 0.00322532 0 2128.73 1407.83 0
0.00858419 0.0213223 0 2679.15 3160.27 0
0.00228739 0.00873166 0 222.554 3002.03 0
-0.00330691 0.0124678 0 -1513.15 2260.7 0
-0.00135503 0.018735 0 85.8386 3830.37 0
-0.00782909 0.0173425 0 -3279.03 2651.02 0
0.000179373 0.00168518 0 -22.2457 120.602 0
0.000181353 0.0228576 0 77.5509 3820.03 0
0.00116853 0.00608209 0 1305.74 3204.64 0
0.00534216 0.0272787 0 1121.41 3926.92 0
0.000808836 0.00340365 0 1960.71 1760.52 0
-0.00176706 0.00728799 0 -345.38 3212.86 0
0.000366125 0.00308127 0 2099.93 792.156 0
0.000142062 0.00271694 0 -106.829 462.027 0
0.000456136 0.0264018 0 163.983 3877.38 0
0.000149779 0.00301624 0 1891.53 342.995 0
8.09965e-005 0.015903 0 -6.8347 3374.85 0
3.07264e-005 0.00286231 0 -43.9494 715.135 0
-0.000148146 0.00339011 0 -1069.89 2603.49 0
-0.0064378 0.0277565 0 -1248.53 3930.61 0
0.00072806 0.00532362 0 1057.62 3219.42 0
-0.00065633 0.00335203 0 -2410.54 1638.27 0
-0.000360464 0.000878987 0 5.60944 40.0145 0
-9.67537e-005 0.00295742 0 226.802 884.159 0
-0.000484113 0.00948683 0 -295.619 3637.3 0
-0.000565445 0.00399845 0 -1754.97 2716.81 0
0.000588623 0.00111811 0 -47.3025 136.571 0
0.000130395 0.00304539 0 2275.4 1464.48 0
0.000107754 0.00285149 0 -142.846 638.532 0
0.00165731 0.0250536 0 681.444 3984.92 0
0.00285988 0.0119675 0 -40.2188 2585.6 0
-9.54028e-005 0.00428588 0 -246.322 3205.86 0
-0.000124414 0.00317156 0 -1313.2 2130.17 0
-0.00814733 0.0285856 0 -1376.31 3949.15 0
-0.000216377 0.0031251 0 -2399.37 1262.12 0
0.00549751 0.012219 0 665.973 168.33 0
-0.00550796 0.012201 0 -623.793 107.999 0
0.00287309 0.0132504 0 492.202 3027.22 0
0.000396043 0.00090361 0 -11.9852 51.6686 0
-9.96587e-005 0.00294535 0 216.64 838.726 0
-0.00215947 0.00674928 0 -544.045 2781.3 0
-0.000289559 0.000893856 0 3.42919 36.0074 0
0.00184728 0.00894591 0 44.7652 3177.47 0
-0.000404895 0.00611192 0 -460.074 3409.16 0
-0.00085135 0.00350535 0 -1941.3 1888.77 0
3.34633e-006 0.00298331 0 -3.18955 1148.77 0
0.00378526 0.0199019 0 954.072 3751.62 0
-0.000528492 0.024373 0 -249.051 3935.27 0
-0.000842118 0.0116133 0 471.355 3283.12 0
-0.00298148 0.0188909 0 -625.962 3775.57 0
5.9556e-005 0.0025331 0 -23.1256 356.646 0
-0.000468824 0.00121303 0 35.8761 100.173 0
9.1581e-005 0.0171817 0 -3.40994 3466.95 0
-0.00127026 0.0113439 0 355.708 3249.92 0
0.00402234 0.0130084 0 2357.63 1862.62 0
-0.000363163 0.00496329 0 -636.983 3284.82 0
-0.00609252 0.0268039 0 -1280.8 3850.92 0
0.000283831 0.00172705 0 -33.7722 133.614 0
-0.000884834 0.00452052 0 -1866.66 2818.1 0
0.000104251 0.00312707 0 1139.4 2012.45 0
0.00028648 0.000908897 0 -7.23245 41.1869 0
0.00627587 0.0218045 0 1791.77 3711.12 0
0.000138189 0.00301242 0 1809.15 379.402 0
-8.45766e-005 0.00300744 0 49.0333 1466.39 0
-0.000367296 0.0115469 0 322.086 3305.65 0