/*--------------------------------*- C++ -*----------------------------------*\
  =========                 |
  \\      /  F ield         | OpenFOAM: The Open Source CFD Toolbox
   \\    /   O peration     | Website:  https://openfoam.org
    \\  /    A nd           | Version:  8
     \\/     M anipulation  |
\*---------------------------------------------------------------------------*/
FoamFile
{
    version     2.0;
    format      ascii;
    class       volScalarField;
    location    "0.0001";
    object      alphat;
}
// * * * * * * * * * * * * * * * * * * * * * * * * * * * * * * * * * * * * * //

dimensions      [1 -1 -1 0 0 0 0];

internalField   nonuniform List<scalar> 
23640
(
9.48993e-08
1.38628e-06
1.56651e-10
0.000917343
1.21496e-06
3.98676e-08
1.43202e-07
3.81291e-07
1.1733e-06
1.57832e-07
0.000171605
2.85764e-07
1.06659e-07
1.15765e-06
1.12125e-07
1.53176e-07
3.73297e-08
4.16318e-05
0.000124769
1.42449e-06
0.000105185
7.71926e-12
0.0001104
1.09519e-05
1.09054e-06
1.22816e-07
1.32514e-05
2.08277e-06
2.38177e-08
6.0355e-07
2.72914e-07
0.0777866
9.92211e-05
6.87262e-07
1.27202e-06
5.96397e-08
4.13574e-08
8.66279e-07
2.68033e-10
2.53462e-05
5.31279e-07
1.28176e-06
1.32867e-06
8.01329e-10
0.0025831
1.29059e-05
9.47284e-08
5.54911e-07
1.6941e-07
2.94021e-07
0.463695
8.33983e-05
4.60222e-08
1.96128e-07
0.000979335
7.65195e-10
6.13216e-06
1.44421e-06
8.2653e-07
0.00134209
3.42542e-07
1.7143e-05
0.000233008
9.49641e-05
9.67096e-07
9.19722e-05
1.30664e-07
1.16895e-06
2.50048e-06
1.24178e-06
2.71653e-05
6.63787e-07
5.39442e-05
6.35502e-08
1.0398e-07
0.014388
2.10877e-12
9.08575e-08
0.000125976
0.000235338
1.50821e-05
2.60769e-06
1.8686e-06
1.98287e-06
9.20214e-07
1.2114e-08
7.99376e-05
6.087e-07
1.00872e-05
1.20371e-07
5.72334e-07
1.45822e-06
4.90579e-07
7.77795e-05
9.8573e-05
6.67561e-07
9.92836e-05
4.42647e-09
9.8729e-07
3.04201e-07
1.1171e-06
1.95011e-07
4.34442e-06
4.21539e-08
1.18898e-06
7.96243e-07
0.00010675
6.19937e-08
3.23437e-07
1.22049e-06
9.30699e-07
5.82184e-05
6.15633e-07
6.09537e-07
2.73392e-07
3.57415e-07
9.22262e-08
9.28956e-07
8.50124e-08
6.75093e-07
3.62473e-07
0.0359351
5.27188e-09
0.0525341
5.12306e-06
1.30659e-05
0.673357
1.88958e-06
5.93807e-08
6.02509e-07
3.43235e-06
1.6414e-06
1.07934e-07
8.49659e-06
5.60779e-08
9.17673e-08
0.000125177
1.15069e-06
0.000170581
0.000103039
1.10444e-06
8.18275e-06
4.70648e-05
0.00017621
2.02485e-05
1.43936e-06
0.000161131
4.98979e-05
6.81489e-07
2.506e-06
2.2458e-07
6.07373e-10
1.45407e-06
0.000464875
2.49559e-06
5.1588e-07
1.34616e-07
6.20573e-07
7.66672e-08
1.31012e-05
6.01079e-08
3.97992e-08
6.03013e-08
9.40262e-08
3.28548e-07
3.48731e-07
5.11639e-05
5.33913e-06
0.00013734
1.61344e-06
4.70665e-07
2.6472e-07
1.31574e-07
2.95462e-07
0.000174884
0.000146758
6.39041e-07
5.92163e-07
0.000237681
9.09028e-07
0.00256408
4.16152e-10
1.14168e-06
1.73399e-06
1.58666e-08
4.27331e-05
5.15006e-06
7.31025e-07
0.000931282
1.97265e-06
2.71716e-07
0.000147648
0.0210522
1.3898e-06
6.24926e-08
1.29979e-05
1.19898e-06
6.59798e-06
1.43025e-09
6.51354e-06
0.000148832
2.20844e-09
3.53986e-07
1.37998e-06
0.000118728
5.52196e-07
6.21067e-10
0.000104856
6.76174e-07
7.06064e-05
1.16083e-06
1.1283e-06
2.03793e-07
5.85767e-07
8.03454e-11
1.64453e-06
4.69025e-07
1.38973e-06
3.4235e-07
3.15188e-09
2.30752e-07
0.000157271
0.000148555
3.03038e-07
1.56964e-05
5.51196e-07
1.48034e-07
0.0446783
2.79124e-09
5.85186e-07
1.09256e-07
5.54353e-08
1.09345e-06
1.12477e-06
6.01049e-07
2.6801e-06
3.08887e-05
1.64701e-06
7.09617e-07
8.71367e-06
1.27482e-06
4.38323e-08
5.39162e-07
1.42051e-06
0.00079471
1.23018e-07
1.39112e-07
3.25823e-09
0.000325293
9.40919e-06
0.0016067
1.41435e-07
9.3378e-08
0.000166945
6.10459e-07
2.68822e-05
1.12396e-10
6.83705e-08
0.000224933
0.000164234
0.00160879
5.4205e-07
1.35889e-06
3.22487e-07
1.32311e-08
1.32817e-06
8.76771e-06
8.28218e-07
5.82427e-07
7.63233e-05
5.71182e-07
2.61306e-08
4.09907e-08
0.00105578
1.48654e-06
7.03045e-07
1.48423e-08
0.034796
0.000108165
2.77734e-07
1.11417e-05
8.88046e-09
3.89844e-05
0.000188445
6.93065e-07
1.60132e-05
4.75252e-07
2.71619e-07
1.13751e-06
0.000186871
8.57411e-07
2.88612e-08
1.64063e-06
2.60389e-07
0.000168499
9.66554e-07
4.62325e-07
6.44058e-08
1.71768e-07
5.07815e-08
5.59395e-06
9.65602e-05
0.05008
1.53224e-06
0.00012022
6.27826e-08
1.99727e-06
1.0019e-05
0.00131113
4.15707e-05
4.24483e-08
1.79542e-06
0.000178512
0.000103137
0.000141583
8.46831e-06
7.84528e-07
8.74649e-11
0.000100952
3.52956e-07
6.11097e-08
6.8354e-07
1.30206e-06
1.98573e-06
5.89818e-08
1.25852e-06
4.18839e-05
9.90668e-07
5.73938e-08
0.242315
3.61765e-05
4.30258e-07
1.7811e-06
3.25785e-06
1.94716e-06
1.51614e-06
8.48829e-10
6.67001e-07
8.29224e-07
1.67596e-07
4.22887e-09
2.6693e-05
2.43808e-06
0.0324455
0.000100178
4.00939e-05
1.3431e-05
2.72078e-07
5.08258e-07
1.13998e-06
0.00016438
1.03411e-06
6.07327e-08
1.00505e-06
1.25651e-06
2.80001e-07
1.53684e-07
4.01147e-07
0.000212528
0.000161446
4.97653e-06
0.000138789
9.99973e-05
4.31913e-08
1.64544e-06
5.37098e-09
7.46964e-08
4.7518e-07
0.000130415
6.47503e-07
1.46046e-06
1.57587e-06
3.95409e-08
0.000142821
4.85708e-06
5.80798e-08
0.0013723
1.06431e-09
9.95565e-07
8.83121e-06
6.03765e-05
1.67777e-06
1.55339e-06
3.28331e-05
1.3814e-06
2.06382e-07
2.339e-07
2.89229e-07
1.7831e-05
1.37272e-08
7.63476e-05
1.33193e-07
3.37805e-11
6.60194e-08
9.73874e-07
1.95315e-05
0.0286713
1.71012e-07
9.09613e-08
1.09242e-05
2.19866e-09
1.81363e-06
2.08753e-06
2.86827e-08
9.97816e-08
1.42975e-07
0.000590718
3.08415e-08
1.96712e-07
1.09679e-07
7.54731e-06
0.000319507
0.00016263
2.93016e-07
0.000169533
4.71685e-07
1.48939e-05
2.81868e-07
2.49153e-07
9.61719e-07
0.00023318
7.46536e-05
1.66847e-07
4.32581e-06
2.77803e-07
8.69217e-08
0.0376807
4.71385e-09
0.000137199
1.97357e-07
2.35791e-08
0.00357438
6.6441e-05
9.9953e-05
5.15756e-06
0.000105006
1.80596e-06
7.97547e-08
4.87947e-06
0.000811214
3.42837e-06
0.000180814
2.03919e-08
1.76518e-07
3.4863e-05
3.45634e-07
1.23194e-05
4.53942e-07
0.000155465
4.74453e-07
267.026
1.59307e-07
0.000186159
8.14891e-08
2.35306e-05
1.10788e-07
9.62775e-07
1.96122e-06
0.000143088
1.97672e-07
2.0805e-07
7.23824e-07
6.01171e-07
26.2626
1.49988e-07
6.89661e-07
1.51966e-07
7.57762e-11
7.17469e-07
2.23029e-07
3.16179e-06
7.44624e-07
0.00176224
2.03231e-09
1.11037e-08
1.69144e-05
2.15112e-06
2.81491
1.77676e-06
0.00673501
5.15399e-07
1.44703e-08
1.48959e-06
1.94328e-07
1.97546e-07
4.75853e-07
5.30003e-05
3.34532e-09
1.69217e-07
9.86697e-08
8.24067e-06
0.00336375
7.63724e-08
7.78162e-06
1.06549e-06
1.35246e-07
5.44676e-07
3.08609e-05
4.21284e-07
1.77384e-07
6.27335e-07
0.000241104
7.15509e-08
1.54191e-06
7.26817e-07
6.3958e-07
1.00014e-06
3.10542e-08
2.7293e-08
1.13804e-07
1.49345e-05
5.96991e-08
6.48044e-08
2.20454e-08
9.54402e-05
4.28182e-07
5.72579e-07
5.38647e-08
1.45897e-06
0.000191304
3.89642e-06
6.80251e-05
493.711
4.26339e-08
1.28112e-06
6.31552e-07
7.88503e-05
2.47308e-07
6.31092e-05
1.01676e-06
1.63579e-07
1.89166e-05
2.56667e-06
5.12478e-09
2.02979e-09
3.17878e-07
6.12796e-08
1.309e-06
6.27272e-08
8.41353e-07
1.14482e-07
7.41507e-07
1.06017e-06
1.6337e-07
1.1959e-07
1.54975e-06
4.80144e-08
1.85938e-05
7.99993e-07
8.10268e-07
6.55818e-06
1.13633e-06
8.73526e-10
2.78863e-09
4.57412e-06
5.05802e-07
1.41886e-06
2.60048e-08
0.000130929
0.000202317
4.02291e-09
7.12496e-05
1.54227e-06
6.61447e-06
0.000107093
0.000106567
2.22636e-07
0.000120915
1.19569e-06
1.33824e-07
153.467
1.16357e-06
1.03607e-06
5.73385e-07
9.129e-07
0.0001288
9.21769e-09
1.58082e-08
9.67882e-07
8.01479e-08
0.00396385
2.78769e-06
4.87657e-07
2.88868e-07
0.000105163
9.61597e-06
6.19125e-08
9.74268e-07
1.16052e-07
0.000123728
0.000314739
9.78381e-07
6.05616e-07
1.54657e-06
6.77725e-07
0.000101844
1.29832e-06
8.15932e-06
7.62159e-07
6.2335e-07
0.000174906
0.000157074
0.000217991
2.11765e-06
6.37878e-07
6.22099e-09
8.08828e-07
4.24475e-08
4.41795e-07
7.52865e-05
6.30097e-07
2.26455e-07
3.09333e-07
1.22631e-06
2.47767e-09
8.56715e-07
4.87721e-09
1.56531e-06
1.13815e-07
0.0411761
0.000119869
4.68537e-07
7.98512e-07
0.000322268
1.21187e-06
9.17631e-05
1.89818e-07
0.000142433
7.01405e-07
2.35238e-08
6.36925e-09
5.36525e-07
9.72039e-10
8.90679e-07
2.57128e-09
0.0012606
6.60834e-07
2.05774e-07
1.43385e-07
7.38997e-08
1.50221e-06
2.37167e-09
6.52388e-05
8.38629e-08
1.01065e-09
2.8047e-06
0.000141242
7.44071e-06
2.58699e-07
2.78977e-07
3.6861e-07
0.0284374
1.40978e-05
6.1059e-07
1.35155e-06
0.000530218
4.42232e-07
5.34408e-05
1.69433e-07
3.77175e-09
1.44308e-06
1.03418e-05
3.78857e-07
1.16467e-06
1.30848e-13
4.24398e-14
5.672e-08
0.0174812
1.56937e-05
4.27391e-07
0.0389964
1.29878e-06
1.54644e-07
3.11073e-07
0.000110923
5.6925e-08
3.33206e-07
1.28763e-06
1.35186e-07
0.00024525
0.00163262
2.32449e-06
1.42958e-06
1.19039e-09
5.59385e-07
1.23981e-07
0.000771012
6.44522e-07
1.30685e-05
0.0362471
2.24691e-08
5.45553e-10
1.32046e-05
1.13341e-06
6.45906e-05
2.91739e-08
4.92588e-07
9.62353e-07
2.78865e-05
5.66474e-07
0.0192257
0.000109217
8.49162e-07
6.65108e-06
6.09927e-08
8.20939e-07
1.26944e-05
6.57926e-07
4.9128e-05
1.10008e-06
7.82852e-05
1.1836e-05
6.51652e-07
5.61145e-09
2.85872e-12
4.56018e-08
9.91468e-08
4.38038e-07
9.46413e-05
1.00924e-08
1.24548e-06
1.63208e-05
6.11158e-07
6.3797e-09
2.54919e-06
4.32438e-11
1.25037e-08
9.91696e-08
1.05934e-06
0.000701455
2.81147e-06
2.79499e-07
0.000202904
3.81647e-05
3.32821e-07
4.98081e-07
2.24012e-11
4.96119e-07
0.000219191
2.9033e-06
1.36865e-07
5.40841e-07
0.000226854
7.8972e-07
4.48534e-08
3.3368e-05
2.55271e-07
1.03692e-06
3.09654e-08
6.49024e-07
5.24606e-05
1.01347e-07
1.67893e-06
4.58992e-07
2.07165e-06
2.99872
8.63255e-06
7.59887e-08
7.75796e-05
2.28402e-05
9.23612e-07
1.00216e-06
2.13441e-05
1.21358e-06
0.000576172
1.25147e-09
0.000194655
8.81382e-07
6.81492e-05
2.44191e-06
3.72123e-07
1.05863e-06
1.14354e-05
6.24628e-07
8.96969e-06
1.49535e-07
0.00012642
1.8905e-06
8.01119e-05
1.42195e-09
9.23661e-07
0.0598517
2.24458e-10
1.91702e-09
4.6768e-09
0.00309596
7.06179e-06
6.85631e-08
1.75712e-06
6.2546e-07
2.28111e-09
9.03766e-08
2.5527e-05
7.15144e-07
8.43637e-09
2.95387e-05
4.0519e-09
0.000176933
5.84088e-08
2.22762e-05
1.4097e-06
8.86706e-06
1.08427e-06
1.05898e-06
5.78413e-07
0.000549742
4.76491e-07
0.000109607
0.000142114
6.23135e-07
5.63363e-08
1.28827e-05
1.16475e-06
0.00053931
1.14526e-08
1.57082e-07
1.94566e-07
2.42894e-08
9.63639e-08
3.5063e-07
2.12635e-06
2.34442e-12
7.4224e-08
2.2254e-06
9.40738e-10
4.22937e-05
3.72476e-06
2.16279e-07
6.56248e-07
2.28992e-05
4.95114e-07
8.57138e-06
8.57306e-08
0.000105258
5.9942e-07
2.02437e-06
1.16168e-07
3.71178e-05
7.91031e-10
2.43564e-07
0.000101913
1.48321e-07
0.000174178
6.30872e-07
2.54056e-07
1.73925e-07
0.000476391
5.24805e-07
1.92368e-05
1.27473e-06
9.94921e-07
9.12847e-08
2.3922e-07
1.09075e-07
0.000125469
169.13
5.29655e-07
2.06894e-06
1.43936e-06
1.42321e-06
1.15428e-06
9.47822e-08
7.30705e-07
8.65175e-06
1.81402e-05
8.65464e-08
0.000172363
3.65618e-07
0.00494801
3.9443e-08
1.48129e-06
4.47549e-05
0.000181196
0.000141505
1.27963
1.7861e-08
3.85598e-05
5.8971e-06
4.58062e-08
1.66936e-08
9.56403e-07
7.78175e-07
9.88834e-05
1.26275e-07
7.79668e-07
8.47617e-08
0.000223808
3.53034e-06
0.000730408
1.2182e-07
1.08267e-10
8.47608e-06
3.602e-07
1.20907e-08
1.98803e-07
2.35129e-06
5.85349e-10
1.29397e-07
1.22621e-09
1.72228e-05
0.000142694
9.02225e-10
1.62706e-06
1.57827e-07
2.79634e-05
2.64331e-10
2.57802e-06
5.41817e-08
1.24631e-06
4.62178e-07
2.73718e-06
1.02614e-08
1.93571e-07
1.77306e-06
0.000152276
6.67573e-07
2.22396e-05
0.000174775
0.000118924
0.00019212
1.18608e-07
2.59037e-05
6.73764e-07
1.65958e-05
7.6229e-08
5.72221e-08
5.67403e-08
2.02604e-06
6.78127e-08
0.00272384
0.000102976
7.33813e-05
1.1769e-10
1.03138e-06
0.00193075
3.26701e-06
5.21071e-08
7.22763e-07
1.1933e-06
0.000268753
9.77392e-09
6.29868e-08
1.40607e-08
3.68615e-09
0.000198364
1.64107e-06
7.76193e-05
1.82835e-05
4.8123e-08
3.58933e-07
5.47455e-07
0.000157081
5.68314e-07
1.65479e-08
1.13634e-06
7.61443e-07
7.17314e-05
6.70756e-11
2.93997e-07
6.42069e-08
1.1292e-06
4.87314e-07
0.000111831
7.55949e-08
3.32963e-07
7.35866e-08
1.42296e-07
0.000698268
1.15186e-06
1.15443e-07
0.000156852
8.53693e-08
0.000151249
2.2507e-06
1.74899e-08
1.29288e-07
9.48321e-07
2.22019e-08
5.47124e-07
0.000119778
3.57258e-09
1.16872e-06
3.42535e-07
1.54748e-07
1.2627e-07
5.9166e-05
1.68316e-09
3.31285e-07
3.55599e-05
0.000127159
7.76766e-08
0.000615403
1.04016e-06
8.52322e-07
4.23533e-05
1.6801e-06
0.000796422
7.59355e-07
1.40205e-06
8.88415e-07
5.59956e-08
8.54433e-08
7.95126e-05
2.03601e-06
5.43314e-08
1.55311e-05
2.29805e-06
5.6231e-08
9.47019e-10
2.29648e-10
1.02516e-08
7.3983e-07
4.44713e-07
1.74006e-07
1.01379e-05
2.41432e-06
1.16734e-07
1.65275e-07
9.04982e-07
3.47091e-12
0.000111118
0.0126963
5.70159e-09
2.2566e-05
2.50931e-06
1.89391e-08
1.14787e-06
0.000272649
7.92183e-07
1.29308e-07
0.000106657
2.32954e-06
3.48115e-07
1.01368e-06
6.98839e-08
7.96187e-07
1.91046e-07
1.35819e-07
9.53399e-07
1.05594e-07
1.01277e-07
8.82691e-05
5.59242e-09
1.81533e-07
5.43444e-08
8.09574e-06
8.78973e-07
1.65016e-05
0.00564217
1.12171e-06
2.48494e-06
2.65939e-07
0.00311786
1.43357e-05
6.16506e-05
7.28603e-07
7.36241e-05
7.62111e-07
7.88569e-12
1.02643e-06
4.09482e-07
1.36261e-05
3.97323e-08
0.000337211
1.36579e-07
3.54691e-08
2.68832e-09
9.27822e-06
3.64621e-05
5.13312e-08
6.40209e-05
7.50275e-09
1.56033e-07
3.37974e-06
3.20386e-06
8.29743e-07
7.9005e-06
3.92512e-07
1.13681e-06
2.44308e-05
1.21386e-07
6.9088e-08
1.2261e-06
3.07448e-05
5.33132e-11
7.98264e-08
7.1545e-07
0.000132623
5.905e-06
8.12709e-07
1.90074e-06
9.70652e-07
6.21431e-07
9.71573e-07
4.82624e-07
9.3331e-07
2.256e-07
1.05293e-07
1.75576e-08
9.7318e-08
1.39822e-06
1.36958e-09
3.44758e-10
0.000619471
2.00012e-08
2.77098e-06
9.1451e-05
3.05602e-08
1.31292e-06
1.87875e-05
2.20973e-05
7.0199e-07
1.62633e-07
1.33287e-07
7.19203e-07
1.52957e-06
7.73672e-06
5.02458e-05
2.48561e-10
3.36896e-06
5.44651e-05
8.54717e-08
5.55052e-08
3.22817e-08
5.36754e-08
0.0778308
7.23832e-07
8.53314e-07
7.26789e-07
0.00308588
7.31393e-05
1.99374e-08
2.08177e-08
0.000170706
0.0808767
5.12138e-08
5.5654e-09
9.00378e-07
2.67423e-10
1.33224e-08
0.000109324
7.12103e-09
3.77482e-07
0.000151277
4.87741e-07
1.21972e-06
0.00059145
0.000239659
2.12626e-08
2.70749e-05
7.11921e-06
2.91738e-07
1.116e-06
1.3402e-07
7.63789e-07
7.06976e-08
3.21354e-05
5.62378e-09
3.38269e-06
0.000124168
6.7538e-07
2.28786e-08
5.91844e-05
1.87789e-07
9.91498e-07
2.01121e-06
6.45715e-05
1.01599e-05
1.35424e-06
2.34667e-05
5.11103e-07
2.41593e-08
1.72098e-06
1.87593e-09
9.48541e-08
2.82596e-07
7.16071e-07
7.41464e-05
2.72514e-07
1.07168e-06
7.21578e-08
0.000109389
0.000117784
2.76655e-08
3.34883e-08
0.000113857
3.80884e-06
2.78453e-07
1.05942e-05
5.27238e-07
3.2217e-05
6.30309e-07
6.41465e-08
8.72991e-07
1.69187e-06
1.42533e-07
2.29569e-08
198.568
2.31261e-07
0.000182322
1.26365e-06
3.21007e-07
0.000184448
4.18126e-07
3.84746e-08
3.43326e-06
5.26389e-08
1.45083e-05
3.28125e-09
0.000162525
1.72455e-07
4.07856e-07
2.77551e-06
5.40631e-07
5.90112e-08
1.41509e-07
2.06106e-07
5.69868e-05
3.11655e-07
1.34241e-09
1.50142e-06
4.02651e-08
6.89602e-07
5.91403e-05
0.000156343
1.03497e-06
0.000275218
3.36749e-05
0.00211776
1.94397e-06
3.66186e-08
1.23709e-06
0.000107932
6.57608e-07
2.18157e-11
9.88675e-08
4.4952e-07
8.43305e-07
1.8208e-09
1.43118e-06
3.02484e-07
1.2197e-06
1.40889e-07
0.000103339
9.28361e-08
5.09735e-09
1.42575e-06
3.33091e-05
3.55376e-07
3.24567e-10
0.000229672
1.33362e-08
1.5176e-06
5.76045e-08
1.67964e-08
4.74796e-06
7.08169e-07
3.52485e-08
2.59172e-07
1.34259e-07
0.000203545
6.13405e-07
2.96308e-05
2.37861e-05
2.25375e-06
7.39488e-07
1.69653e-07
4.53971e-12
2.24562e-08
8.29648e-07
8.57078e-07
3.94816e-10
1.85414e-10
1.67524e-10
1.31211e-06
0.000130801
3.33274e-05
0.00018182
7.08934e-07
6.56145e-07
2.78934e-09
7.06327e-05
7.80509e-07
0.000168613
2.46248e-08
2.62407e-07
6.74085e-08
1.12657e-07
4.59359e-11
3.00621e-07
5.39587e-07
1.24923e-07
1.51168e-07
6.92566e-07
6.05227e-09
7.8685e-06
0.000113995
1.19349e-06
5.92771e-07
1.47776e-06
1.35958e-07
6.79912e-07
2.67537e-09
3.13039e-07
2.08772e-07
3.66372e-07
433.65
5.19892e-07
4.59453e-07
1.25249e-06
0.000110194
0.000160871
0.000131798
8.31522e-07
5.96779e-08
3.23095e-06
0.000146427
2.40631e-07
1.56841e-06
7.48664e-08
1.13327e-06
1.1497e-08
8.00175e-08
1.78705e-06
3.96432e-07
1.60223e-06
1.63651e-08
4.57577e-05
3.0242e-07
2.33094e-06
1.09705e-06
2.52498e-07
5.9603e-07
7.05085e-07
0.000140024
8.39038e-07
6.71754e-06
2.7589e-07
0.000205916
0.000168188
5.76005e-08
8.58698e-09
5.085e-07
2.07132e-09
1.08931e-07
1.15368e-06
1.98618e-06
0.000170491
2.77086e-07
0.000224525
2.78974e-09
7.28881e-07
6.98165e-07
1.32753e-06
8.99284e-07
0.598568
2.73222e-05
9.68547e-08
3.15266e-06
1.85035e-06
5.12225e-09
3.06731e-05
8.62386e-08
1.01243e-07
1.00984e-06
3.08759e-10
0.0565447
1.28166e-06
0.000536596
2.87957e-07
8.35763e-08
1.53371e-08
2.19655e-06
3.31665e-07
1.3376e-06
1.74662e-08
0.000116446
5.91957e-05
2.13893e-12
1.43138e-08
1.30434e-06
5.77811e-07
9.90918e-07
1.47497e-05
3.67752e-07
2.57345e-06
1.14944e-06
8.9637e-06
0.000220379
1.24297e-05
1.78019e-07
4.8146e-07
5.63227e-08
1.63896e-07
2.27674e-06
1.31889e-07
2.49197e-06
1.43882e-05
9.54926e-07
1.47347e-05
9.35535e-07
1.55347e-08
3.29388e-10
1.03492e-05
1.24564e-06
1.43028e-05
2.0111e-08
0.000187569
9.58299e-05
7.39925e-08
2.54134e-06
5.59787e-08
2.55742e-08
1.02764e-08
9.77222e-06
3.11992e-07
5.62467e-07
1.20398e-07
1.35512e-06
1.13035e-06
0.000159226
1.05024e-06
5.88131e-06
0.000232721
1.74275e-07
5.23195e-09
1.0519e-06
1.27139e-06
1.78838e-07
2.54303e-06
1.31884e-07
1.34342e-06
1.78183e-07
1.52954e-08
2.98021e-07
3.82064e-12
5.02571e-09
2.61635e-07
0.000115626
2.84568e-07
3.86346e-07
3.95202e-07
4.38275e-07
9.78559e-09
2.43981e-08
3.15492e-09
1.94282e-09
6.73339e-07
0.000140477
4.85482e-10
1.11811e-07
0.000636221
1.03868e-07
9.34202e-07
1.49474e-07
1.11559e-06
8.38218e-05
2.30567e-10
0.00233282
0.000486194
1.38863e-07
1.30074e-10
51.1189
7.13058e-08
1.04329e-06
1.28754e-06
0.000100898
1.25196e-06
2.1258e-07
2.26709e-06
2.47732e-06
4.10058e-07
7.61712e-09
2.0408e-06
0.000795314
2.3788e-05
1.67247e-07
7.85306e-05
5.36411e-06
7.03854e-10
1.00048e-06
3.77135e-05
0.000217441
0.000253237
5.88979e-08
9.8376e-08
0.000122197
1.40269e-07
1.91162e-07
1.43986e-07
3.92787e-06
0.000121931
2.7125e-07
1.5078e-07
1.01488e-07
1.33203e-07
0.000106166
1.15763e-07
6.76054e-07
2.19807e-06
7.68071e-05
2.50211e-06
2.55883e-07
0.000394722
0.00328033
0.000186729
0.00141437
1.50155e-08
2.52314e-06
1.19971e-05
1.01565e-05
7.98542e-07
1.76812e-06
1.28273e-07
6.17024e-07
0.000109702
2.10046e-10
2.95025e-06
0.000131388
1.35441e-07
0.000769584
0.000313573
0.000140744
240.206
3.21918e-07
1.2776e-06
1.00098e-06
8.7605e-07
2.82171e-05
7.68428e-06
1.70295e-08
3.14271e-09
7.86747e-07
1.25653e-06
1.36271e-06
1.18941e-06
3.15862e-07
0.000222041
9.72708e-08
4.21406e-07
2.55919e-06
2.00789e-08
8.2013e-07
0.000203873
2.23605e-07
1.42965e-07
0.000132097
7.48768e-06
3.45423e-06
2.45838e-07
1.35994e-06
8.56975e-07
1.49032e-06
1.19746e-07
1.92146e-06
3.33886e-09
9.43648e-05
0.657599
0.00050077
9.33391e-08
1.24569e-08
2.21251e-08
4.88406e-05
8.99727e-09
1.13301e-06
1.1997e-06
1.73002e-06
2.67648e-06
6.38159e-05
0.000105291
4.21399e-07
7.03814e-06
2.61968e-07
3.64908e-11
6.34934e-05
1.86875e-06
1.68692e-06
80.4253
1.23346e-07
3.01066e-07
3.03801e-07
0.000613136
7.38892e-07
9.91065e-07
0.000106451
2.14022e-07
1.39719e-05
9.5029e-07
6.6607e-06
2.69446e-06
0.000595196
7.72133e-07
1.31053e-06
1.09525e-07
8.6728e-08
0.000103715
2.16055e-08
3.14268e-07
2.89453e-07
5.57026e-06
1.35869e-06
0.000251825
5.68378e-06
6.14458e-05
2.00854e-06
1.4711e-07
1.65298e-06
1.69092e-06
1.18979e-05
3.36025e-07
1.90838e-07
0.0185755
9.53709e-05
2.0892e-08
3.53375e-05
8.54758e-09
1.70636e-06
8.66586e-08
3.9297e-05
8.44338e-07
2.17486e-09
0.000279985
0.000235836
2.02867e-07
1.00479e-06
0.000331215
9.80791e-09
1.89001e-06
5.95854e-07
4.74759e-07
1.08979e-06
1.37942e-08
2.09471e-07
1.71254e-06
6.9088e-05
7.2343e-07
5.80179e-06
0.00019447
5.05147e-06
8.82702e-11
9.87167e-07
3.54718e-07
5.86768e-07
0.00872192
2.88134e-06
9.29182e-05
0.0105176
1.86615e-06
2.14251e-07
3.24315e-07
0.000512781
7.85149e-08
4.95836e-07
1.94067e-07
2.66903e-06
0.00034648
2.80058e-08
5.48044e-07
4.05562e-08
2.0502e-05
0.000103464
1.57382e-06
0.000157905
5.00508e-08
2.60467e-07
8.48806e-05
6.0704e-05
1.81991e-06
0.0210413
1.45786e-08
1.63005e-09
8.5087e-08
1.28246e-05
4.54136e-07
4.79775e-08
1.43731e-06
5.97645e-07
0.0176275
9.23103e-08
1.77793e-08
7.26091e-07
2.04883e-08
0.000220439
0.000209226
2.48019e-07
8.19811e-05
1.17227e-06
3.93487e-07
5.08833e-05
1.55669e-06
8.21241e-06
7.95072e-07
7.10442e-07
2.11478e-07
1.76045e-06
6.24403e-09
1.77748e-05
6.48442e-07
2.82054e-08
4.60374e-06
8.7658e-07
9.91979e-08
3.26493e-08
1.01776e-07
0.00025166
1.09074e-07
0.000878276
7.94752e-08
4.03034e-07
1.33711e-06
6.628e-05
0.000118599
2.18181e-06
0.000104557
0.000120593
1.08182e-06
1.78075e-07
96.0766
1.87406e-05
1.57108e-09
2.25809e-07
0.0001028
8.82747e-06
1.28042e-06
0.000354023
9.9535e-05
0.000136205
0.00022106
3.68062e-08
2.72803e-09
1.31106e-09
1.29417e-06
7.21138e-09
6.38384e-06
0.000147553
4.23497e-09
0.000158771
2.41065e-07
2.3064e-08
7.68335e-08
0.000103901
9.91913e-05
4.3738e-07
1.60582e-07
0.000142747
1.10102e-06
4.17561e-09
6.65353e-07
1.25218e-08
0.0451582
3.28857e-07
9.09175e-05
1.22966e-05
1.11245e-06
1.97479e-05
1.17163e-06
1.53189e-08
1.09362e-06
9.41542
1.48969e-06
5.40459e-05
5.04244e-07
1.2067e-07
1.39991e-07
0.000973054
0.000680549
3.00626e-07
7.41093e-07
0.000105607
9.83708e-08
3.65376e-06
2.45137e-05
8.18184e-05
6.22259e-06
1.00287e-06
5.64907e-08
0.000114102
2.92385e-05
0.000214392
1.15149e-06
0.000686759
5.7487e-07
9.37179e-08
1.44495e-10
1.04055e-06
8.15598e-06
0.000194453
2.12893e-06
7.72723e-05
5.73263e-06
2.46735e-06
2.02812e-07
1.35292e-05
5.76979e-07
6.85851e-08
1.42201e-06
1.15687e-07
9.44681e-08
0.000140626
5.83709e-08
3.34377e-09
2.50141e-05
5.93789e-07
1.15968e-06
5.17022e-05
4.41562e-06
3.9598e-07
8.54316e-08
1.22672e-06
1.09399e-06
4.25622e-07
3.73962e-08
5.18325e-07
0.010693
4.72675e-09
3.85395e-08
1.99143e-07
9.63767e-08
3.46215e-07
8.10585e-07
8.33209e-05
1.45435e-05
1.35181e-06
3.85971e-07
4.45462e-08
0.00647621
2.38473e-06
7.03972e-07
1.38148e-06
0.000123978
2.08395e-07
0.000200179
0.000188833
1.06599e-08
0.000173683
9.87206e-05
3.79121e-07
1.18812e-07
3.89939e-05
6.26085e-07
4.19869e-07
2.25947e-08
1.80051e-07
1.23058e-09
3.33109e-09
1.70392e-09
1.43163e-09
1.68969e-07
1.01878e-08
5.92797e-08
1.06492e-06
8.36178e-06
8.20652e-08
3.06797e-08
0.00010968
2.56082e-07
150.641
3.00932e-07
2.96395e-08
6.61537e-07
5.61946e-09
0.000138142
6.47986e-08
1.33537e-06
2.91871e-07
1.43982e-06
3.53108e-06
2.94497e-07
1.27191e-05
1.17987e-06
8.24134e-07
2.38336e-07
1.10405e-06
8.98838e-06
6.59747e-07
8.67553e-07
1.02834e-09
3.10017e-08
1.07641e-06
2.46681e-05
1.1628e-06
1.68027e-06
0.000281106
3.82044e-07
6.78347e-07
1.75402e-07
3.58102e-09
5.69913e-08
2.93337e-07
1.09602e-06
3.08093e-07
6.86265e-07
0.000130645
1.17605e-09
0.00506773
1.71482e-06
1.386e-05
6.8947e-05
5.66307e-07
0.00406097
5.07129e-06
7.93807e-07
1.39105e-09
5.48468e-06
1.0837e-07
0.000116666
0.000288183
5.67663e-07
1.47713e-06
8.67224e-07
2.95501e-07
0.00132398
8.24562e-07
3.44669e-07
6.33767e-07
2.6915e-05
9.48378e-07
3.37767e-08
1.65032e-05
2.38728e-07
3.11029e-07
1.31364e-06
1.79197e-09
3.28806e-06
5.82013e-07
6.44927e-07
2.82865e-06
6.76055e-07
9.99209e-07
8.29907e-05
1.1731e-06
0.000222812
0.0019771
0.000141687
0.000181496
2.32212e-06
1.3545e-08
7.59276e-07
0.000103601
2.86069e-08
2.45292e-08
6.7212e-07
3.5999e-07
1.93133e-05
2.43364e-09
3.28615e-08
6.11909e-07
0.000106181
1.42991e-05
2.27985e-07
0.00010478
7.16216
4.23909e-08
7.29477e-06
8.60885e-05
6.93802e-05
0.000102881
2.62926e-08
0.00142403
1.78971e-06
5.09248e-07
0.000108027
0.000513783
2.2495e-07
3.5682e-07
1.19905e-06
4.71411e-14
6.09864e-07
1.56242e-06
2.40145e-08
8.07033e-07
2.64767e-10
4.1392e-05
7.68707e-09
6.16511e-07
6.14724e-06
1.59732e-07
6.7123e-08
3.0922e-07
3.36626e-07
0.000190609
1.35736e-06
6.08143e-09
1.75878e-06
6.53402e-08
9.652e-07
2.7984e-06
4.00865e-08
0.000134292
8.09193e-07
1.71281e-06
1.52583e-07
6.67233e-07
2.77673e-08
4.0416e-06
4.135e-07
0.000108418
5.71328
2.71955e-07
8.63204e-05
1.23255e-07
2.13782e-06
7.49319e-07
5.47475e-07
3.02529e-07
1.12291e-06
4.90012e-05
3.24876e-07
1.72036e-05
1.19201e-06
2.78751e-06
1.47459e-06
7.23802e-07
0.000229119
2.12128e-07
4.1904e-07
6.0115e-08
1.58236e-08
8.34818e-06
6.8978e-10
1.26734e-06
2.89446e-08
1.1787e-07
1.18791e-06
1.00728e-07
5.42153e-05
8.88898e-07
6.6276e-07
3.06876e-05
0.000485797
5.51593e-07
2.26654e-06
1.51517e-05
7.27352e-06
1.0039e-05
0.000222178
0.000130696
6.44057e-05
3.48252e-09
1.3138e-06
9.72309e-14
0.000174288
3.14568e-07
1.67492e-08
1.56305e-06
4.15845e-06
2.06887e-06
3.7267e-05
1.07281e-06
1.49915e-06
4.80541e-05
2.43533e-06
0.000126672
1.4785e-06
2.89351e-05
0.00010367
1.3606e-08
2.01913e-07
2.13081e-07
5.60312e-06
3.74694e-07
8.35667e-08
5.42749e-07
9.208e-07
1.20437e-06
2.12357e-06
3.12434e-07
3.98277e-07
4.0608e-07
1.5263e-06
1.19387e-08
3.27692e-10
4.81005e-07
1.14177e-06
3.78015e-05
9.2799e-06
1.7251e-06
1.07188e-07
6.39916e-05
6.87211e-05
1.727e-06
9.60432e-05
9.33413e-07
9.53222e-07
0.000126022
0.00044807
0.125553
5.12086e-07
1.02135e-05
6.07446e-05
1.1723e-06
6.7365e-05
8.90232e-05
1.11937e-06
4.61359e-07
1.4965e-07
3.10251e-07
6.67219e-10
1.1877e-06
1.49616e-08
7.44966e-08
0.00100377
0.000637337
7.15438e-07
0.00020842
1.95096e-07
3.60399e-07
1.57748e-05
5.3111e-08
2.2316e-06
0.000407045
1.33587e-06
1.00091e-06
1.32742e-07
5.8241e-07
0.0225312
1.29591e-06
3.52359e-05
2.45113e-06
3.96473e-07
1.22896e-07
5.15662e-08
1.27258e-06
0.000116756
8.29413e-08
1.25807e-06
2.14751
8.49353e-10
5.80484e-05
3.62268e-07
7.65125e-05
9.17463e-08
2.26883e-05
4.59595e-06
4.96196e-07
1.57684e-07
9.12511e-07
1.18881e-06
0.000201792
1.68852e-07
1.79341e-07
2.52697e-06
9.2507e-07
2.13603e-05
7.20188e-07
1.23539e-06
3.76856e-08
8.20166e-08
0.000261461
0.000122052
1.1896e-06
1.25409e-06
6.96065e-07
7.00258e-07
6.29686e-07
1.77502e-08
5.72707e-05
4.62568e-08
9.1056e-07
7.13386e-05
2.5719e-06
0.0111914
8.93118e-07
1.60411e-06
1.56725e-09
0.000417034
1.16191e-06
2.49315e-07
2.59656e-07
9.16625e-09
2.23857e-06
3.29542e-07
7.35384e-07
1.60576e-06
1.15427e-07
1.33183e-06
6.80402e-07
3.42278e-07
1.85236e-07
4.02173e-08
1.1623e-07
3.31668e-07
5.70285e-08
2.28044e-08
6.49057e-08
1.16225e-06
4.98609e-07
5.16039e-08
8.88881e-05
1.16948e-06
2.72355e-07
0.000706494
2.91313e-06
5.0621e-08
0.00023046
0.000619135
2.2614e-06
3.25547e-07
2.5343e-05
0.000413762
4.44145e-08
3.93985e-05
0.00167869
2.80114e-06
0.000947036
1.96182e-09
6.79143e-07
5.82592e-09
4.62477e-08
1.27618e-06
1.68032e-05
8.23264e-09
1.60656e-06
1.64217e-06
2.38722e-05
1.14034e-06
2.5801e-07
7.33831e-07
2.51894e-06
1.16933e-07
1.11963e-09
1.74439e-06
5.52885e-07
6.43284e-08
4.27955e-07
3.15483e-07
0.000104006
0.000178376
9.9376e-08
4.1723e-08
1.68755e-05
4.66805e-06
7.95971e-05
2.34118e-05
6.88129e-07
6.21466e-07
1.0579e-07
1.41532e-05
6.90019e-08
5.20687e-06
1.60794e-06
1.12397e-09
6.11906e-07
6.85052e-07
3.82201e-07
6.83444e-07
1.37147e-07
7.87169e-07
0.000294716
1.90263e-07
3.24382e-07
2.08729e-07
2.23212e-06
1.09993e-05
7.40512e-07
0.0129985
3.12966e-07
1.2035e-06
4.23513e-08
9.79546e-08
1.67984e-07
1.31577e-05
7.23098e-07
0.000373915
0.000548675
0.000301058
3.37627e-08
3.20957e-05
1.22534e-08
1.14442e-08
1.32541e-06
3.60252e-09
6.76352e-07
1.11976e-06
2.27354e-08
1.45814e-06
1.18682e-06
5.34425e-08
7.12202e-07
3.82626e-08
0.001106
2.03901e-07
1.53836e-06
1.94335e-08
2.22324e-05
4.78609e-07
9.93128e-08
0.000343845
0.00134352
6.35178e-10
0.000371686
3.6877e-08
9.87175e-08
2.72184e-07
1.0602e-06
3.24491e-07
1.13561e-07
6.39998e-07
0.00018111
1.76312e-07
9.81569e-06
3.22804e-06
7.40891e-07
8.21553e-09
1.80317e-07
4.61493e-07
5.00344e-07
0.000228964
1.88356e-06
1.03073e-07
6.79118e-05
2.10374e-07
7.36335e-07
1.0785e-06
1.61963e-06
4.65914e-05
0.000179233
2.87544e-08
1.0799e-05
1.69186e-08
5.43998e-07
3.92766e-05
2.46326e-06
1.78416e-06
2.38731e-09
4.46976e-08
2.31224e-06
1.11151e-06
3.69541e-06
2.38005e-05
2.2798e-07
1.85698e-07
1.08586e-06
7.36968e-07
2.56927e-05
3.34392e-07
0.611441
5.05294e-06
1.07726e-09
1.05166e-06
2.92778e-07
8.22179e-10
1.27361e-06
9.16106e-09
1.70277e-08
0.00012893
1.23337e-06
1.65117e-06
0.0055311
4.50846e-07
0.000104698
0.000906718
0.00013479
2.81616e-06
3.08842e-07
9.71293e-07
1.41767e-08
3.08743e-05
4.90969e-09
3.20873e-07
7.4384e-07
4.89924e-07
1.76164e-05
9.15158e-07
1.73118e-06
3.18069e-07
0.000359324
0.00011048
4.91365e-06
1.04353e-06
3.92127e-07
7.51992e-08
1.50794e-13
2.27587e-05
4.67171e-08
8.58104e-14
4.55308e-07
1.97727e-07
2.39234e-07
1.56579e-06
2.18779e-05
7.98838e-07
4.81498e-07
1.35866e-07
1.21707e-06
2.54541e-08
2.28344e-06
5.3675e-06
6.54453e-07
1.02958e-07
2.10637e-07
1.52134e-05
9.16313e-09
3.48954e-08
1.75367e-08
0.000176157
2.69485e-05
9.85976e-07
8.54896e-06
0.000208971
8.42877e-07
6.06255e-09
0.000128248
1.14229e-08
9.40547e-08
1.22539e-08
5.88765e-07
4.24365e-05
4.63896e-05
1.69525e-05
7.71167e-07
1.25847e-07
6.93524e-08
2.25236e-07
7.33978e-07
2.34923e-08
6.52007e-06
2.95714e-06
7.44462e-05
0.000192693
6.71519e-07
4.62374e-07
7.05099e-10
7.46628e-05
2.99209e-07
1.91353e-06
1.23895e-08
5.74634e-07
6.3804e-07
8.05949e-05
8.97674e-05
6.52187e-07
1.06672e-06
2.76037e-05
1.58096e-07
6.00276e-08
0.000277094
1.2416e-08
1.6789e-07
0.000115213
0.000581656
1.69793e-08
0.000131613
6.49419e-08
7.66726e-05
2.39622e-07
3.11601e-08
1.01783e-06
1.76022e-07
2.36034e-07
0.000267018
2.72277e-07
1.19537e-09
4.00222e-07
8.61651e-07
1.1624e-07
1.87772e-07
1.8182e-07
5.76384e-07
1.26741e-06
1.05899e-07
6.00799e-05
9.31415e-08
5.95732e-07
9.89082e-08
3.30174e-08
8.02598e-09
0.000178798
1.80861e-07
1.36466e-06
3.12713e-12
1.51046e-06
1.66863e-05
3.26289e-09
0.000147952
0.000126077
0.000668139
3.62084e-09
3.42964e-07
2.3605e-07
1.67659e-09