/*--------------------------------*- C++ -*----------------------------------*\
  =========                 |
  \\      /  F ield         | OpenFOAM: The Open Source CFD Toolbox
   \\    /   O peration     | Website:  https://openfoam.org
    \\  /    A nd           | Version:  8
     \\/     M anipulation  |
\*---------------------------------------------------------------------------*/
FoamFile
{
    version     2.0;
    format      ascii;
    class       volScalarField;
    location    "0.0001";
    object      epsilon;
}
// * * * * * * * * * * * * * * * * * * * * * * * * * * * * * * * * * * * * * //

dimensions      [0 2 -3 0 0 0 0];

internalField   nonuniform List<scalar> 
23640
(
8.34516e+08
6.39923e+09
8.05795e+07
7.6835e+10
4.62326e+09
1.55914e+10
3.91605e+09
3.42834e+09
1.35583e+10
7.04834e+10
4.27817e+10
8.5893e+09
9.3627e+08
4.68385e+09
3.81321e+10
1.68584e+10
3.87499e+08
7.50588e+10
4.96914e+10
2.36805e+10
4.29948e+10
5.59032e+08
4.3183e+10
8.38263e+10
3.04805e+09
4.97806e+09
4.44787e+10
2.25391e+10
5.1668e+08
1.2876e+09
1.14404e+09
5.61832e+09
4.30332e+10
1.50385e+10
2.78617e+10
4.24923e+10
4.02454e+08
3.96534e+08
9.73258e+08
5.25381e+10
1.5099e+10
1.32217e+10
5.14318e+09
7.46755e+08
5.64542e+10
7.85237e+10
5.93948e+08
1.299e+10
7.06707e+10
3.09184e+09
8.08469e+08
6.1699e+10
4.80378e+10
6.63767e+08
7.59267e+10
1.01803e+11
1.15295e+10
6.15575e+09
8.48794e+09
9.20455e+10
1.08403e+09
5.59931e+10
5.26696e+10
5.94214e+10
8.0224e+09
5.98955e+10
1.33166e+10
3.36454e+09
1.64702e+11
4.43065e+09
5.38014e+10
1.46443e+10
5.58545e+10
8.04192e+08
1.61029e+10
2.88143e+10
5.55451e+11
9.92739e+08
4.92688e+10
5.02142e+10
8.41179e+10
5.54475e+10
1.07668e+10
1.09162e+10
8.06513e+09
1.24391e+11
6.25139e+10
1.05393e+11
9.87733e+10
3.3159e+10
5.78417e+09
5.87523e+09
6.34296e+10
5.07229e+10
5.97907e+10
6.21815e+08
5.83275e+10
6.37682e+10
1.01615e+10
6.05958e+10
5.04154e+10
6.44374e+08
1.05261e+11
1.00148e+09
3.2739e+10
3.49248e+08
8.24689e+10
7.53044e+08
9.23844e+09
8.59298e+09
6.32046e+08
5.43981e+10
1.00504e+10
1.69743e+10
1.27968e+11
3.41398e+08
3.90819e+10
5.00539e+08
7.73647e+08
1.34157e+09
1.58651e+11
6.11642e+09
6.09e+10
4.98796e+09
4.20704e+10
6.44074e+10
6.02222e+08
8.05269e+10
1.67701e+10
1.74818e+10
2.36248e+10
4.19978e+10
9.40636e+08
4.47881e+10
1.03487e+09
1.66334e+11
4.19407e+10
3.23407e+09
4.27569e+10
5.6415e+10
9.41293e+09
1.33614e+10
5.91355e+10
4.29033e+10
7.99325e+10
4.86877e+09
4.27357e+10
4.51762e+10
6.48881e+09
1.81856e+11
2.9907e+09
4.42293e+09
9.3139e+09
6.27522e+10
3.38359e+10
3.01984e+08
3.98904e+09
1.23329e+10
8.72016e+09
4.42012e+10
3.30448e+10
6.90337e+10
4.31492e+10
9.32401e+09
3.40242e+08
1.85861e+08
6.03541e+10
1.08835e+11
8.2068e+10
4.11627e+10
1.32416e+10
1.22024e+11
1.59484e+10
8.79158e+09
5.90173e+10
5.83142e+10
1.716e+10
1.11891e+11
5.07031e+10
1.82198e+09
5.63878e+10
1.69924e+11
3.15659e+09
2.24803e+10
4.77042e+08
6.77764e+10
3.96563e+10
6.18037e+10
1.15646e+11
2.40925e+10
1.5354e+10
4.21001e+10
1.00746e+10
8.95601e+09
5.48926e+08
6.01799e+10
3.32162e+10
3.84175e+10
1.56166e+11
6.63852e+10
4.51065e+10
2.70333e+08
8.02519e+08
1.29135e+10
4.71121e+10
7.31384e+09
1.85888e+11
4.31673e+10
9.09683e+10
5.85813e+10
4.64638e+09
3.39193e+09
1.1158e+09
7.15396e+09
3.3476e+09
6.64243e+09
1.38156e+10
2.29609e+10
1.15072e+10
2.44988e+08
1.16533e+09
4.234e+10
4.49888e+10
8.918e+09
7.35881e+10
9.5504e+09
6.10048e+09
5.39668e+09
2.87983e+08
5.97547e+09
8.75073e+08
6.27628e+08
2.00947e+10
3.65517e+09
1.18879e+10
5.33855e+10
5.17955e+10
6.83619e+09
6.67537e+09
1.13945e+11
5.01684e+10
1.90768e+11
1.46873e+10
1.28412e+10
7.50031e+10
5.81054e+08
1.78334e+09
8.13337e+10
5.26084e+10
7.7744e+10
8.37199e+10
6.40192e+09
6.03159e+08
5.967e+10
7.53146e+09
5.20219e+10
2.63344e+08
6.38947e+08
8.98961e+10
8.93604e+10
7.11204e+10
8.64888e+08
4.3167e+10
8.85766e+09
2.81902e+08
5.27234e+09
4.11301e+10
1.1848e+10
6.952e+09
6.38227e+10
6.76827e+10
4.57125e+08
2.75868e+11
1.06669e+11
7.86568e+10
1.4549e+10
4.13886e+08
6.34789e+09
5.82304e+10
8.64331e+09
6.70517e+10
2.6183e+08
7.29038e+10
4.32435e+10
1.98148e+10
6.14925e+10
9.41681e+09
3.46166e+10
1.24781e+10
4.319e+10
1.10609e+09
5.81876e+08
6.46986e+09
1.07216e+10
4.27431e+10
4.70485e+09
1.53582e+10
8.59258e+08
5.77412e+09
6.51903e+08
1.11951e+11
5.87717e+10
4.69783e+09
5.6531e+09
4.20946e+10
5.44496e+08
4.4172e+10
6.57357e+10
7.41411e+10
6.12241e+10
6.90794e+08
6.82591e+10
5.87012e+10
4.93235e+10
4.52189e+10
4.11735e+10
6.01516e+10
1.23282e+08
5.94382e+10
2.04519e+10
1.10941e+09
1.41783e+10
2.83603e+10
2.21071e+10
1.04569e+09
7.66073e+10
6.63967e+11
4.2799e+09
1.41909e+09
1.6101e+09
8.50813e+10
3.30143e+09
2.30331e+10
3.05609e+10
3.57091e+09
5.41873e+09
1.61329e+11
6.37421e+10
4.74307e+09
5.64616e+09
1.43535e+11
7.67174e+10
3.30953e+10
7.47019e+09
4.17046e+10
7.72776e+10
5.66205e+10
7.9656e+09
9.35316e+09
1.94886e+10
8.69061e+10
7.43966e+10
6.89668e+08
4.35405e+08
2.7761e+10
3.21069e+08
2.05265e+09
7.64441e+08
5.22932e+10
4.24325e+10
3.91419e+10
4.2603e+10
5.68294e+10
6.03992e+08
6.61242e+09
2.8236e+08
3.08239e+08
7.06149e+10
4.94004e+10
1.4176e+09
1.1406e+11
2.27236e+11
7.26898e+08
4.49857e+10
4.10974e+10
7.03502e+08
1.21382e+11
1.44421e+08
4.37686e+09
3.81014e+10
5.39463e+10
2.20376e+11
6.24567e+09
7.1836e+10
8.12328e+09
7.40961e+08
5.74332e+10
1.6889e+08
5.70297e+10
4.51962e+08
6.37237e+10
1.30933e+09
3.20315e+11
4.76913e+10
4.39533e+10
6.26207e+10
7.92005e+09
9.74768e+08
5.96573e+08
6.14398e+10
1.99023e+09
1.27939e+11
1.29503e+10
5.18404e+08
9.66217e+08
5.82342e+09
9.53123e+10
5.23359e+08
4.94435e+10
9.05851e+09
2.91786e+10
5.22245e+10
6.77967e+10
1.39977e+10
4.29636e+10
1.37031e+10
6.15388e+10
6.39504e+08
1.115e+10
1.72462e+10
8.74059e+10
6.42359e+10
5.74707e+09
4.29795e+10
7.61156e+10
5.08199e+08
6.5717e+09
6.22171e+10
4.24786e+10
5.38465e+09
3.20327e+08
4.62125e+10
5.57135e+10
4.37315e+10
2.96185e+10
4.16863e+10
1.14354e+11
3.91276e+10
1.2021e+11
1.68489e+11
3.11018e+10
5.21068e+10
4.73567e+10
8.31515e+10
5.24828e+10
1.3356e+10
6.04693e+10
6.86425e+10
4.39673e+10
7.00687e+10
2.14493e+06
1.31405e+10
6.08344e+10
1.32019e+09
9.54001e+10
9.73249e+08
1.16109e+10
4.28764e+10
1.02171e+11
6.32735e+10
1.09138e+10
1.94362e+10
1.11309e+10
1.85869e+07
4.73172e+10
1.38579e+09
4.64956e+10
1.32279e+11
6.19824e+10
1.52275e+10
2.21539e+10
1.01735e+09
6.81971e+10
1.71734e+08
1.41905e+09
6.35281e+10
9.12135e+09
1.69096e+08
6.62218e+10
4.51942e+10
1.19417e+10
3.01881e+08
1.64808e+10
8.30931e+10
3.33853e+10
9.06235e+10
4.82731e+10
3.01892e+08
1.19922e+09
1.02332e+09
3.64426e+10
8.74332e+10
9.94863e+08
9.06112e+10
4.0416e+09
5.74622e+09
6.38215e+10
9.41087e+10
1.05926e+11
1.07044e+09
5.99805e+08
4.71591e+10
5.20141e+08
5.10499e+09
7.48885e+08
7.36255e+09
4.303e+10
7.27769e+08
5.82991e+08
9.02213e+08
7.24704e+10
1.04649e+09
7.03743e+10
1.02198e+11
4.42269e+10
1.07219e+10
1.07098e+10
5.3531e+08
1.27027e+10
4.36191e+10
5.2744e+10
6.57375e+10
1.1719e+06
3.95703e+10
1.11263e+10
1.03239e+10
4.62323e+10
1.22806e+10
5.31501e+10
9.32946e+09
6.44062e+09
6.86379e+10
7.14674e+10
3.52085e+11
1.14992e+11
6.22344e+08
4.94693e+10
4.24252e+10
7.26847e+08
1.91815e+10
7.74475e+09
7.81439e+08
4.37596e+09
5.64195e+09
9.42067e+08
6.92978e+09
3.84979e+10
8.0536e+10
2.23268e+09
2.31786e+09
1.2054e+11
3.71438e+09
1.47159e+11
2.52286e+08
1.18671e+11
6.01982e+08
4.21782e+09
2.21211e+11
4.2044e+10
5.91719e+10
4.86965e+09
4.28951e+10
5.34008e+09
6.84205e+10
5.45208e+10
4.35914e+10
1.58409e+10
4.58146e+10
1.15118e+11
5.73433e+10
3.61641e+06
4.56939e+09
3.97806e+09
3.06997e+08
4.28529e+08
4.95045e+10
5.65081e+10
1.19198e+11
4.29328e+10
5.53187e+08
4.2659e+10
4.51501e+09
6.85217e+08
1.25025e+10
4.89242e+10
9.94282e+10
5.17343e+09
4.29069e+10
4.90673e+09
4.56721e+10
5.29429e+10
3.11071e+09
1.72559e+10
1.21433e+10
8.0149e+09
5.91723e+10
2.20754e+10
4.61486e+10
1.05607e+09
6.40403e+10
4.30447e+10
4.38123e+10
9.72021e+10
7.07884e+10
1.45025e+09
1.02825e+11
4.92761e+10
1.01672e+09
1.04347e+10
4.67887e+10
1.13661e+09
3.13164e+09
8.3258e+09
2.16412e+09
6.71624e+09
4.73863e+10
7.58372e+10
6.08961e+09
9.0176e+08
6.30822e+09
4.73905e+10
1.49601e+10
1.61523e+10
5.35324e+10
4.73849e+09
6.07443e+10
1.23462e+10
4.4575e+10
6.72998e+08
4.58978e+10
3.4463e+08
8.3232e+09
1.84754e+09
1.78054e+09
2.02915e+08
7.56456e+10
6.0672e+08
1.37223e+10
1.01408e+09
3.80902e+10
1.23887e+10
6.84087e+10
4.32999e+10
1.02285e+09
1.39929e+11
4.63873e+09
4.47902e+10
4.71127e+10
6.58976e+08
8.13995e+09
5.92222e+10
8.08908e+09
9.43869e+10
6.00888e+09
2.24305e+10
1.93443e+11
1.03001e+11
4.79513e+10
7.77797e+08
6.66631e+09
1.61381e+10
8.05859e+10
2.99083e+08
8.22779e+10
1.08614e+09
1.65039e+09
1.52917e+09
1.31647e+10
8.52261e+10
1.97043e+10
5.87911e+09
6.46276e+09
6.19849e+09
4.69527e+10
5.75892e+10
9.18592e+08
6.21744e+08
4.24309e+09
1.2425e+09
4.75071e+10
8.80001e+10
3.03679e+09
4.3161e+09
6.39741e+08
1.15813e+10
8.82217e+08
8.75177e+10
1.51849e+10
8.98766e+10
6.74303e+09
5.14969e+08
1.6841e+11
1.21108e+11
5.41985e+09
6.6831e+10
3.50783e+08
3.84318e+10
2.07392e+10
5.35896e+10
9.76468e+09
2.3613e+10
5.80476e+10
1.69834e+10
1.00867e+11
1.12921e+09
1.58993e+10
6.32779e+10
6.27393e+10
4.58807e+10
3.63349e+10
5.02587e+10
6.54553e+10
8.80313e+10
2.73397e+08
7.89732e+08
4.02701e+10
2.41588e+09
1.2719e+10
4.40585e+10
4.9625e+10
3.52825e+10
6.21398e+10
6.64112e+10
2.41521e+08
3.12154e+10
5.21511e+07
2.93619e+08
5.57762e+08
2.50804e+10
7.30225e+10
6.26696e+09
8.26892e+08
4.67862e+10
4.71252e+10
2.30491e+08
9.22994e+09
1.5295e+11
1.37006e+10
4.77539e+10
6.25925e+09
7.08585e+09
1.1589e+10
4.82287e+10
1.01572e+11
9.72468e+08
9.57399e+10
9.06735e+08
2.3702e+11
7.6338e+08
7.78464e+08
6.09696e+10
2.88418e+08
3.41147e+09
6.01544e+08
5.35042e+09
1.60303e+08
3.61394e+10
7.24329e+08
6.34655e+10
5.23148e+10
3.6813e+08
8.56721e+09
1.08328e+11
1.68909e+09
8.86137e+10
7.81921e+10
4.36452e+10
1.51837e+10
5.63332e+10
3.0293e+10
3.46134e+10
1.37215e+10
8.23189e+10
1.04236e+10
1.01631e+11
8.17518e+08
6.75559e+10
2.36519e+09
6.16169e+10
2.20183e+11
5.08837e+10
4.6109e+09
1.89063e+08
2.22278e+11
6.16045e+10
9.46822e+10
4.63713e+10
8.6154e+08
2.39479e+10
1.02139e+10
1.90931e+08
4.35268e+10
7.50918e+10
6.98165e+08
3.52675e+08
5.33246e+10
8.85175e+09
4.85253e+10
5.67957e+08
5.36592e+10
1.25951e+10
3.89027e+10
3.86524e+09
5.37959e+08
6.77379e+10
1.73393e+11
1.28714e+10
4.88102e+10
4.33836e+10
7.37413e+08
6.64793e+10
7.98007e+10
4.06365e+09
9.92191e+10
8.51912e+10
1.12625e+10
4.01341e+09
5.4536e+11
3.66997e+10
9.85806e+09
2.80035e+09
2.78399e+11
3.58324e+11
2.28676e+10
6.77454e+10
4.65832e+10
2.45111e+10
1.07972e+09
6.49051e+10
1.02495e+11
5.81563e+08
3.5417e+10
1.10722e+09
5.77972e+10
1.02156e+10
3.41135e+09
1.80217e+10
5.20227e+10
1.27724e+08
6.80388e+08
5.78231e+10
1.70559e+10
4.31875e+10
1.30746e+10
2.27542e+08
7.92872e+08
6.34971e+10
5.84159e+08
5.58767e+10
4.44113e+09
1.84915e+09
9.50861e+08
4.4626e+10
1.71654e+09
5.12307e+10
3.32011e+06
8.51452e+09
4.63349e+10
1.30304e+10
5.2655e+10
3.52188e+10
7.30533e+08
1.04031e+09
1.56727e+11
5.2275e+10
1.022e+09
4.32256e+10
6.88877e+08
3.59126e+10
4.06312e+10
8.50493e+10
4.66959e+10
5.10412e+10
4.22933e+10
3.7028e+08
4.96801e+08
5.42358e+11
1.63583e+11
1.06107e+09
4.33284e+08
4.81354e+10
1.6972e+09
5.82221e+10
1.25063e+09
1.03768e+11
7.78855e+09
4.9727e+10
2.42289e+10
8.6922e+10
2.0165e+09
3.75073e+08
4.33597e+10
1.02314e+10
5.32226e+10
1.45764e+11
3.22636e+10
1.32199e+11
7.79464e+09
3.26117e+08
7.30657e+10
4.54226e+10
2.13687e+11
7.34831e+09
1.2389e+09
9.42141e+10
1.37404e+08
4.55823e+10
7.69894e+09
1.3305e+10
2.79547e+08
9.94873e+10
4.34101e+08
7.38278e+10
3.69589e+10
3.89695e+11
6.34992e+08
5.2644e+10
7.27946e+10
4.62332e+10
4.50016e+10
1.69588e+10
7.69249e+10
1.43099e+09
5.98888e+10
5.05066e+08
4.66079e+10
5.35124e+08
2.69535e+09
6.63488e+10
1.52296e+11
5.81284e+10
5.15428e+10
6.51798e+07
2.50649e+10
6.5998e+10
5.47056e+10
3.75672e+10
2.33077e+09
6.77604e+09
4.92543e+10
9.94103e+10
2.70046e+08
1.06862e+11
7.69429e+09
4.52886e+10
3.51941e+10
4.35732e+10
9.60831e+10
6.6769e+08
9.80899e+08
1.69388e+10
4.23665e+10
3.30155e+08
4.43513e+10
7.73425e+09
1.69226e+09
7.40435e+10
9.99266e+08
1.27469e+10
9.72362e+08
3.51682e+10
5.00736e+09
4.69902e+10
1.32714e+09
1.00838e+10
7.43943e+09
8.52304e+09
1.61647e+11
7.50542e+09
4.95891e+09
4.36675e+10
6.98862e+08
4.21744e+10
3.51731e+09
5.40022e+10
8.57097e+08
2.26986e+10
4.57327e+10
1.33343e+10
4.67003e+10
8.09722e+10
5.91249e+09
9.45367e+09
9.65669e+09
5.04726e+09
5.36093e+10
2.77429e+08
5.97404e+08
4.83885e+10
5.003e+10
1.25845e+09
8.64087e+10
4.4414e+09
2.15353e+10
4.68036e+10
2.20199e+09
1.46232e+11
7.7403e+09
9.01187e+09
3.30523e+10
6.36805e+09
1.31754e+09
6.2281e+10
2.47812e+10
3.23326e+10
5.65864e+10
7.17302e+10
7.11746e+08
2.0457e+11
9.73427e+10
2.72172e+08
7.94281e+08
7.16833e+08
3.82884e+09
7.97343e+10
1.45047e+10
2.89606e+09
4.39419e+09
1.78594e+10
2.36829e+11
4.84278e+10
1.68585e+10
2.51991e+08
5.65537e+10
2.70324e+10
3.93505e+08
1.07412e+10
9.02827e+10
2.94464e+11
5.55622e+09
5.35332e+10
3.15271e+10
3.98313e+09
1.76404e+10
1.13219e+09
1.26213e+09
7.37687e+08
3.26905e+10
1.44037e+09
7.08941e+08
1.42343e+09
4.31883e+10
6.52234e+11
4.05896e+09
1.12438e+09
8.34186e+10
1.97526e+10
6.5152e+10
3.22748e+10
3.62137e+10
1.08413e+10
7.614e+09
5.08272e+10
6.57188e+10
5.2787e+10
9.96302e+08
6.4601e+10
3.03124e+09
2.14366e+11
1.3439e+10
1.75796e+10
8.06494e+10
6.23567e+08
5.38257e+10
5.44156e+09
1.54761e+09
2.20784e+08
5.49046e+10
7.75816e+10
8.73555e+09
5.53487e+10
3.71717e+08
7.9223e+10
1.75061e+11
1.29824e+11
4.60589e+09
4.27925e+10
1.04614e+09
7.5554e+09
5.6285e+10
8.80039e+08
4.56797e+10
3.33216e+10
5.86636e+10
1.48466e+11
3.86921e+10
6.20765e+10
4.83646e+10
8.31225e+10
2.07791e+10
2.18236e+10
3.20458e+09
1.49083e+09
4.48424e+10
1.20508e+11
1.7683e+09
6.98019e+08
1.13035e+09
4.12154e+10
4.55521e+09
8.78512e+09
1.5864e+08
3.86336e+08
7.13007e+10
5.23983e+08
6.56928e+09
4.28769e+10
5.64472e+08
1.81757e+09
6.67709e+10
7.88197e+10
1.16461e+10
1.24523e+09
1.2696e+09
3.10038e+09
5.07326e+09
7.08964e+10
6.04357e+10
2.97245e+11
2.493e+10
6.13331e+10
1.00823e+09
1.11467e+09
5.84809e+08
9.0913e+08
3.43352e+09
7.85337e+08
1.4849e+10
7.6832e+08
5.02585e+10
5.05641e+10
7.25514e+10
7.08574e+10
6.15559e+10
5.72816e+09
8.01056e+08
2.67151e+08
6.13048e+09
1.98491e+11
3.79714e+08
5.7978e+10
7.44547e+10
2.09154e+08
4.2193e+10
9.68225e+09
1.03531e+11
7.08928e+10
1.52153e+11
3.1314e+08
5.69302e+10
4.23508e+10
7.71121e+08
2.09285e+09
2.80972e+09
1.57761e+10
5.6452e+08
8.14983e+10
9.44993e+11
2.30698e+10
4.21994e+10
1.55108e+10
7.99672e+10
6.4695e+10
1.00101e+09
6.68711e+10
3.43066e+10
5.64287e+10
9.91904e+10
1.60916e+10
4.41366e+10
1.75462e+10
9.18039e+10
3.60061e+10
1.15406e+11
7.32053e+10
6.88147e+10
7.23883e+08
5.00285e+10
1.41874e+10
2.86979e+09
7.43552e+08
4.95715e+10
4.65282e+10
6.43457e+08
3.69268e+08
4.52363e+10
1.30612e+11
3.47783e+08
7.43899e+10
1.23045e+09
7.30826e+10
8.55977e+08
9.46475e+09
6.12074e+09
5.00602e+09
7.47835e+09
5.90218e+08
2.79732e+06
5.60574e+09
4.32659e+10
5.55206e+09
1.63005e+10
4.34017e+10
9.38175e+09
8.39814e+08
2.56398e+10
9.71171e+10
6.58914e+10
1.21482e+11
4.24879e+10
3.03522e+08
9.6326e+09
6.43807e+09
1.34127e+10
1.17084e+09
6.9245e+09
1.17261e+09
5.44139e+10
6.00826e+08
1.5707e+08
7.31597e+09
1.09608e+11
8.79065e+08
7.05928e+10
4.24074e+10
2.29156e+10
4.96511e+10
9.44907e+10
6.28452e+10
3.36817e+10
3.86748e+10
5.69558e+09
5.29209e+10
1.18691e+09
8.42942e+07
4.51324e+09
1.90823e+10
4.63611e+08
2.60131e+08
5.39228e+09
9.06825e+09
3.46067e+10
1.62245e+10
8.75103e+10
6.94523e+10
2.78811e+08
4.76107e+09
7.87277e+10
8.75108e+09
2.52267e+11
1.82818e+12
4.5624e+10
2.57822e+10
7.81636e+08
9.08139e+10
2.78372e+10
7.65717e+08
1.42047e+09
1.0857e+09
1.11283e+10
4.39952e+10
2.11433e+10
7.464e+10
4.50892e+10
4.52183e+10
8.00904e+08
5.76806e+09
8.13139e+08
5.49291e+08
1.06284e+09
1.25766e+11
8.61005e+08
1.13796e+11
6.65386e+07
4.55252e+09
4.36841e+10
5.77327e+10
4.33215e+10
1.27606e+10
6.08942e+08
2.34637e+11
6.55168e+10
2.00295e+10
4.32286e+10
3.06361e+10
6.63196e+08
7.66001e+08
1.23767e+09
1.24166e+11
1.39745e+10
1.48945e+10
3.36144e+10
8.0366e+10
8.53501e+08
9.99305e+10
4.12708e+10
5.01056e+10
6.29863e+09
3.01077e+08
5.55951e+09
7.2973e+09
7.42248e+08
2.03999e+11
1.12244e+09
1.04017e+09
1.51826e+09
1.28897e+06
6.62495e+10
1.80012e+10
2.7285e+10
4.99413e+10
4.25083e+10
4.31339e+10
1.39326e+09
7.34365e+10
2.29915e+10
4.50976e+10
7.66488e+09
9.86927e+09
1.05519e+09
2.42193e+10
2.85109e+08
1.03021e+09
3.08544e+10
2.15087e+08
3.62756e+10
5.03642e+08
4.58984e+10
1.64601e+11
3.04072e+10
2.94782e+09
1.08068e+10
1.44209e+10
1.85509e+10
7.43423e+10
1.43273e+09
8.72984e+10
1.1828e+10
5.01493e+10
5.23331e+10
8.62565e+08
3.63993e+08
5.66309e+08
1.7267e+08
1.07811e+09
3.67753e+10
3.88352e+10
4.32069e+10
7.27377e+10
5.88991e+10
1.13882e+11
1.5384e+10
6.44963e+08
3.2683e+10
1.69432e+10
7.10487e+08
5.24137e+10
1.73361e+11
9.76622e+10
4.41494e+10
6.92381e+10
6.71056e+10
9.92428e+08
4.21383e+09
2.33512e+10
1.21568e+09
7.70293e+09
2.94729e+09
7.85036e+10
9.95227e+08
9.57917e+08
5.01898e+08
2.88521e+09
9.79979e+09
1.97666e+10
6.86938e+10
4.98395e+10
4.7546e+10
2.24094e+09
3.09208e+08
1.831e+09
8.09837e+09
5.69387e+08
6.24555e+10
7.0923e+10
1.32851e+11
2.45886e+10
5.39122e+10
4.50731e+10
4.85133e+10
5.8584e+09
2.83073e+08
1.67714e+10
5.30039e+10
9.51682e+10
5.85378e+09
2.83833e+10
4.52449e+10
1.33977e+10
8.18134e+10
1.87004e+10
2.85278e+08
1.28162e+10
9.30975e+10
2.47497e+11
8.69871e+10
4.73942e+08
4.3503e+10
6.01909e+10
3.03584e+10
3.62904e+09
8.77546e+08
5.52883e+10
2.74717e+08
6.45598e+10
8.57535e+09
2.78936e+08
6.35888e+09
3.3485e+10
3.18794e+09
4.23866e+10
1.73423e+10
6.45853e+10
5.84827e+10
1.02342e+10
7.63616e+09
2.95534e+10
2.48748e+10
1.40787e+10
3.04085e+10
8.47362e+08
5.34194e+09
1.03605e+09
6.36474e+10
6.08317e+08
1.54486e+09
6.06798e+10
6.04565e+08
4.60054e+10
2.84347e+08
9.19842e+09
6.11937e+08
5.77106e+10
1.1057e+10
1.55021e+09
3.14854e+08
1.83888e+08
6.22007e+08
4.43859e+10
8.44031e+10
9.09099e+08
1.45736e+11
9.08121e+08
1.81446e+10
1.76471e+09
3.63831e+10
6.09419e+10
1.87119e+11
5.9989e+10
1.73367e+11
5.88005e+09
1.10397e+08
9.43115e+06
1.03738e+09
2.48907e+10
7.8947e+10
4.64586e+10
4.37586e+09
6.43839e+10
2.50919e+10
3.52529e+09
1.45086e+10
5.70686e+10
4.04168e+10
1.03377e+11
7.55975e+10
6.68049e+09
6.34859e+10
1.45594e+11
6.40719e+08
4.54789e+10
6.99304e+10
4.49671e+10
5.12679e+10
3.18622e+10
4.287e+09
3.28576e+11
1.80957e+10
6.33941e+10
5.60322e+09
1.59174e+11
4.20293e+10
6.20613e+08
1.15994e+09
4.16726e+09
5.57777e+09
5.86442e+10
5.6318e+09
1.55158e+09
2.90988e+09
5.08577e+10
8.68105e+10
7.46983e+09
5.9127e+10
4.83351e+10
5.81972e+10
9.45039e+10
3.07141e+08
2.95187e+10
8.93586e+10
7.53604e+10
1.66727e+10
4.22537e+10
3.99415e+09
8.82615e+08
5.7466e+10
2.01313e+11
8.52862e+10
4.87113e+10
4.12316e+09
7.58895e+10
1.42246e+11
5.90223e+10
2.35369e+06
7.87992e+08
8.77379e+09
2.15405e+10
1.73315e+10
9.14222e+10
1.63155e+11
4.95443e+08
2.0935e+08
7.6795e+10
1.72214e+09
5.43724e+09
1.00121e+11
9.42676e+09
5.39916e+10
7.27954e+09
1.442e+10
7.16818e+09
3.54407e+08
6.58619e+10
4.40734e+10
4.17125e+09
8.42737e+08
3.74891e+11
8.39959e+10
7.76252e+09
6.80391e+08
4.26709e+09
6.68268e+10
9.24844e+09
7.6012e+08
3.03104e+10
6.59193e+10
4.1997e+10
6.2416e+08
7.97858e+10
8.65568e+09
4.47297e+10
5.01853e+10
7.63408e+11
1.04988e+10
3.63048e+10
1.69507e+09
2.25243e+11
1.02198e+10
4.43755e+10
5.26047e+10
8.89238e+10
7.85781e+09
5.9513e+08
3.54882e+08
4.81195e+10
9.16716e+09
6.05274e+09
6.82419e+06
5.25848e+09
1.28984e+10
6.05349e+10
8.9486e+10
1.20064e+09
1.17991e+10
5.20619e+10
5.24921e+09
5.97913e+10
7.48487e+09
1.12855e+11
2.59645e+10
7.28936e+10
1.94787e+10
1.57355e+10
3.02264e+10
5.38401e+09
5.92033e+10
4.00592e+10
1.40385e+09
6.86197e+10
3.0622e+10
2.94468e+10
4.72083e+10
3.11461e+10
6.51905e+10
2.72363e+09
7.4116e+10
8.48759e+09
2.26038e+09
4.39872e+10
2.49811e+08
6.26232e+10
1.17315e+10
6.01271e+10
1.58826e+11
5.00772e+10
1.19462e+09
1.10369e+11
9.41468e+08
7.03894e+10
7.58106e+09
1.07645e+11
5.64144e+10
5.39184e+10
1.20267e+09
4.62713e+10
5.33026e+10
3.49646e+08
2.33889e+10
1.04741e+10
1.38755e+10
2.0394e+10
3.58914e+08
6.41125e+09
9.02344e+09
4.70313e+10
6.08538e+10
4.2801e+10
4.54173e+10
3.80609e+10
1.7409e+09
4.69148e+10
6.17118e+08
1.6404e+10
3.79111e+10
4.35307e+10
7.35607e+10
2.04182e+10
2.33682e+09
7.71103e+09
2.51424e+09
6.63193e+10
7.63031e+08
5.67746e+08
1.92747e+10
7.84569e+09
5.43174e+10
6.1585e+08
1.8578e+10
4.16561e+10
1.07381e+11
4.627e+10
3.45749e+10
4.26168e+10
5.73897e+08
6.63359e+08
5.02258e+10
5.98957e+10
2.48008e+10
1.09814e+10
3.16714e+08
3.73469e+08
6.88311e+08
5.2554e+10
1.30749e+10
1.05729e+09
2.25708e+11
1.5769e+09
1.29712e+10
1.0141e+09
1.00027e+09
1.63629e+09
3.21107e+08
2.0191e+12
1.85044e+12
6.84114e+08
5.27029e+10
3.32199e+09
1.90256e+10
5.09651e+10
8.69973e+09
4.38616e+10
1.42685e+10
1.833e+10
4.16643e+09
2.27004e+09
2.90956e+08
8.02935e+10
6.09695e+08
5.96133e+08
2.7042e+10
1.14388e+09
9.46828e+08
3.2248e+10
4.91536e+08
4.73609e+10
1.5854e+09
1.70667e+11
2.31925e+09
2.49617e+09
9.05477e+10
4.68115e+10
4.51157e+10
2.81448e+09
4.37413e+10
4.67946e+10
1.3279e+10
1.22606e+10
5.79619e+06
5.60924e+10
1.43166e+08
7.80494e+09
4.39912e+10
9.04778e+10
3.06095e+09
5.49106e+10
4.26172e+10
8.65399e+10
4.84408e+10
4.84589e+08
2.23024e+08
1.62803e+11
4.48526e+09
1.28497e+11
7.444e+10
4.53174e+10
7.1972e+10
4.35598e+10
2.44087e+08
3.15371e+08
6.97747e+09
5.48721e+10
4.17758e+10
1.74101e+10
6.28816e+09
4.22645e+10
5.00233e+09
6.55167e+10
6.67048e+10
1.17349e+09
5.60094e+09
3.72682e+09
4.42468e+10
4.47943e+10
3.63922e+10
1.05379e+11
3.51873e+10
1.07062e+11
2.9715e+09
5.59132e+07
5.70027e+09
5.35675e+10
1.19283e+10
7.62723e+08
3.28882e+10
7.80831e+10
7.37114e+10
2.49924e+08
1.98008e+10
5.88654e+10
5.98895e+09
2.40987e+10
5.20073e+10
5.88226e+10
1.37626e+11
4.58859e+10
3.5195e+08
4.72218e+10
5.64309e+10
4.70575e+10
2.00103e+09
9.12827e+10
3.19253e+11
9.81068e+08
1.94854e+08
5.25578e+09
4.21661e+10
5.07324e+10
3.36539e+10
6.38759e+10
1.9488e+10
1.01307e+10
1.6278e+10
4.49459e+10
1.26709e+10
6.8299e+10
4.35083e+09
1.5935e+10
1.56117e+11
4.42146e+10
9.41184e+10
7.63113e+09
5.2362e+10
6.52191e+08
1.3491e+10
5.8416e+10
4.25884e+10
1.26023e+10
1.16509e+09
3.46102e+09
2.47034e+10
8.22791e+08
8.04802e+08
1.16849e+10
1.85335e+10
1.20556e+11
7.44481e+08
1.24255e+10
9.9023e+08
1.96735e+10
1.47121e+10
5.90206e+10
7.02182e+10
5.58094e+09
6.00679e+08
3.92361e+08
2.88851e+10
2.84029e+10
2.36352e+09
4.33225e+09
5.16035e+10
3.405e+09
4.57365e+10
4.85092e+10
3.47791e+08
4.32517e+10
7.72023e+10
5.93852e+08
6.3331e+09
4.68819e+10
1.8748e+10
6.00983e+08
3.01274e+08
2.36762e+08
1.49379e+08
2.36362e+08
1.78174e+08
1.27485e+08
2.43914e+08
2.81215e+08
2.79921e+08
1.7653e+10
4.79973e+10
1.53597e+09
7.13911e+08
5.77141e+10
7.41675e+08
3.69785e+06
1.43626e+09
5.65425e+08
1.44588e+10
2.48415e+08
4.59737e+10
1.08403e+09
3.19161e+10
8.63187e+08
2.52819e+10
1.37188e+10
2.41789e+08
6.61458e+10
3.44891e+09
1.43141e+10
6.83342e+10
4.41199e+10
1.0905e+11
1.04218e+10
1.17155e+10
1.12048e+08
6.05112e+10
2.93012e+09
6.889e+10
4.88913e+10
8.85509e+10
5.7556e+10
6.0139e+08
6.35896e+08
7.61978e+08
4.25776e+08
9.64759e+08
6.50939e+08
2.2604e+10
2.54707e+09
2.90851e+08
4.3474e+10
7.69183e+10
5.85521e+10
7.2107e+09
1.04516e+11
6.16013e+10
1.15268e+09
6.13368e+10
3.93907e+10
2.06673e+10
1.432e+08
8.79217e+10
9.08027e+08
4.57189e+10
5.70552e+10
1.19847e+09
7.84333e+09
1.80938e+09
1.13165e+09
7.33827e+10
2.52346e+11
5.83827e+10
1.71246e+10
7.46005e+10
1.39777e+09
5.73763e+08
7.46584e+10
1.25068e+09
8.68814e+10
2.52674e+10
1.08045e+11
5.2489e+10
2.24089e+11
2.0989e+09
4.44625e+10
1.79004e+10
1.88811e+09
5.90147e+10
3.72155e+10
4.55811e+10
7.22592e+10
4.44165e+10
4.30477e+10
6.6244e+09
2.85628e+08
1.61938e+10
4.24809e+10
4.09105e+10
4.30285e+10
6.20016e+08
1.36253e+10
5.04222e+10
1.96153e+08
3.6725e+08
1.036e+10
5.81164e+10
4.45736e+10
8.007e+09
5.12537e+10
7.30847e+07
4.31889e+09
7.26401e+10
4.22081e+10
5.98891e+10
5.04969e+10
3.45764e+08
7.2168e+10
4.90514e+10
6.01261e+10
5.76872e+10
6.42131e+10
3.36064e+09
4.01026e+09
6.24371e+09
3.95522e+09
9.97447e+09
1.66386e+10
1.11669e+09
5.66025e+08
2.78915e+11
5.09396e+10
1.06471e+11
8.94392e+10
1.04473e+11
3.89836e+09
3.78992e+10
1.07632e+09
1.67103e+10
5.01772e+10
3.64122e+10
1.0733e+11
3.2102e+09
3.85061e+10
2.09056e+10
2.69044e+10
3.5638e+10
4.57568e+10
7.12473e+08
7.07756e+09
4.28707e+09
3.2785e+08
1.49168e+11
9.99918e+10
2.33903e+11
5.48706e+10
8.93985e+07
6.61548e+08
4.40503e+10
5.02213e+09
1.62882e+10
6.92396e+09
7.16121e+08
8.10437e+09
6.73736e+09
7.60612e+10
1.79494e+10
9.52218e+10
2.62222e+10
4.37818e+09
6.50353e+09
6.13043e+10
4.89435e+10
5.40093e+10
1.7178e+10
7.38168e+08
9.00704e+10
1.58721e+11
1.07979e+11
6.9578e+09
6.14169e+10
1.16889e+10
1.92802e+10
2.8784e+10
5.36094e+10
2.05585e+10
6.34196e+08
5.32056e+10
6.58383e+10
1.6998e+10
3.44267e+09
8.41537e+10
6.83687e+10
5.1703e+10
4.75078e+10
4.97964e+10
5.51598e+10
4.5747e+08
3.26607e+10
2.73063e+09
4.31601e+10
5.95457e+08
4.35275e+09
4.15045e+10
2.56631e+10
3.32825e+10
6.95421e+10
3.80913e+09
5.06842e+10
5.10364e+10
3.11599e+10
5.07637e+10
1.5548e+10
6.89128e+10
5.17678e+10
1.53202e+10
7.84289e+09
7.39414e+09
4.26017e+10
2.22135e+08
5.57983e+08
1.50038e+09
7.65732e+09
5.27545e+10
1.33288e+11
8.89053e+08
1.51116e+09
3.45485e+10
9.13533e+09
3.06469e+08
8.09573e+10
8.33507e+09
3.24256e+09
7.71463e+10
6.61068e+10
2.1957e+10
7.4723e+10
6.48251e+10
4.81306e+10
4.10647e+10
6.0424e+10
1.30801e+10
2.15359e+10
5.04925e+10
6.22732e+10
2.83668e+09
8.27085e+09
5.29977e+10
4.58669e+10
4.9935e+10
5.8367e+10
6.11982e+10
3.61941e+10
6.16151e+08
1.0596e+09
1.35843e+09
1.93331e+11
1.65776e+09
3.17288e+08
9.57679e+08
7.83258e+10
7.17256e+10
4.56201e+09
4.48199e+10
1.74193e+10
6.28055e+08
5.27424e+10
2.84531e+10
2.43552e+10
5.98732e+10
9.67071e+09
4.47021e+10
1.25018e+09
8.86868e+09
1.04964e+10
2.60359e+10
4.86015e+10
8.15761e+10
1.802e+10
9.78866e+08
5.53084e+08
1.77863e+09
4.79943e+10
1.05575e+09
1.73348e+09
2.33386e+08
1.28915e+08
4.65972e+10
6.20555e+08
4.62293e+10
1.65832e+10
6.35037e+10
9.66319e+10
1.18072e+10
1.20695e+09
1.95014e+10
3.51158e+10
5.15307e+10
6.36048e+10
1.18434e+09
6.90204e+10
2.14173e+10
4.97801e+10
7.13867e+08
3.3527e+10
1.07552e+09
5.57199e+08
5.73868e+10
4.53339e+10
1.549e+10
1.76327e+09
1.3232e+10
1.51158e+10
1.29634e+10
1.31868e+10
6.00279e+10
5.23354e+08
4.83524e+10
6.32386e+10
7.3381e+09
1.95752e+10
1.20471e+10
5.90533e+09
2.48943e+11
6.87177e+10
3.71048e+10
3.26107e+09
1.16139e+09
2.7299e+08
2.87921e+09
1.72704e+09
1.37213e+10
2.13269e+10
7.38762e+08
2.04577e+10
3.40736e+08
1.07261e+09
1.24952e+10
4.45038e+10
1.2684e+09
9.65889e+09
6.11967e+10
4.21338e+08
5.80503e+08
1.8854e+10
1.16507e+09
1.13028e+09
4.61534e+10
5.87663e+09
6.62112e+08
7.14053e+10
2.13351e+10
6.31903e+10
4.54718e+10
8.15602e+10
2.98073e+09
5.23384e+10
1.13473e+11
6.79444e+10
3.17224e+10
5.02795e+10
1.31185e+11
4.38949e+09
9.80195e+10
1.92039e+08
1.94777e+10
2.38827e+08
5.17937e+08
1.76907e+09
7.21279e+10
6.43336e+10
6.07206e+09
2.35216e+10
1.11174e+11
5.73059e+09
2.48215e+08
7.66664e+08
1.05765e+10
5.73713e+09
1.13279e+08
3.8059e+09
6.32758e+08
5.86744e+08
8.37353e+10
3.76446e+08
4.17585e+10
4.34555e+10
1.29876e+11
7.50543e+08
7.39536e+10
1.21734e+11
6.33096e+10
5.3649e+10
1.45569e+10
1.67887e+10
9.32171e+10
6.11705e+10
1.03997e+09
3.06024e+10
5.12967e+10
1.29365e+08
1.49233e+09
6.59776e+08
2.7348e+08
2.11284e+09
8.71086e+08
1.39659e+10
5.34414e+10
7.72261e+09
1.31888e+10
3.4424e+09
2.06339e+11
1.15881e+10
1.54455e+10
1.54118e+10
8.41339e+09
3.40686e+09
7.51174e+08
4.90003e+09
5.53306e+09
8.11388e+10
2.2111e+09
5.93083e+10
1.8442e+11
5.40653e+10
6.45848e+08
7.32548e+10
2.96206e+08
2.69422e+08
2.59641e+10
1.28343e+11
6.42995e+08
2.63682e+10
9.34074e+08
7.39074e+09
8.92712e+10
5.19704e+08
6.17385e+10
6.30113e+08
1.33976e+11
3.41003e+09
1.44265e+10
5.23229e+08
4.54236e+10
1.07255e+10
4.26286e+09
5.97278e+10
1.01845e+11
7.2981e+07
5.76384e+10
7.58385e+08
4.67229e+09
1.13627e+09
2.49351e+10
1.76577e+10
4.86253e+09
1.36287e+09
4.90188e+10
4.37747e+09
3.78179e+10
1.28785e+11
1.8772e+10
1.01421e+09
5.86945e+09
1.40177e+11
1.0987e+10
4.55345e+10
2.45187e+09
3.39536e+10
4.33203e+10
1.19531e+09
1.91889e+10
2.9255e+09
4.01876e+10
4.63993e+10
4.30217e+10
6.23885e+08
1.11336e+11
3.2238e+08
6.91781e+09
5.05006e+10
2.9652e+10
1.5351e+10
1.32669e+11
6.40328e+10
1.01881e+10
3.92338e+10
1.30463e+11
8.9533e+10
8.95181e+08
1.21842e+10
2.991e+09
1.58238e+10
8.81722e+10
6.34566e+08
6.55109e+08
3.68177e+10
8.69444e+10
2.19447e+10
6.34999e+08
9.5859e+07
5.80836e+09
2.77089e+08
6.16857e+10
4.98032e+10
7.49548e+09
2.19791e+10
3.28972e+10
6.11556e+08
4.96476e+10
7.38133e+10
4.21976e+10
7.29995e+09
1.56323e+10
3.54166e+09
5.65282e+10
7.49612e+10
1.57524e+11
9.21611e+08
7.59753e+08
8.31288e+09
1.23674e+11
1.31542e+09
2.24777e+09
6.35363e+08
6.0457e+10
4.77501e+10
3.10623e+10
4.78555e+09
9.04368e+09
5.30056e+08
3.87209e+09
4.99075e+10
6.43238e+08
5.64681e+09
8.50776e+08
5.48944e+09
1.85925e+09
3.91951e+10
4.73291e+10
5.71875e+10
9.05302e+09
7.23595e+09
2.49623e+10
4.19361e+08
4.87043e+09
8.52941e+10
7.55485e+10
5.07377e+09
8.43548e+08
5.23345e+10
1.19054e+11
8.00952e+08
1.41511e+11
4.01346e+11
6.985e+10
1.97311e+10
1.24437e+11
4.94436e+10
1.42834e+10
3.63192e+08
4.91607e+10
1.69542e+10
1.04143e+09
4.2294e+08
2.57186e+08
4.71031e+10
6.00002e+10
8.09452e+10
1.55198e+10
1.21518e+09
1.12359e+09
6.43133e+09
8.18167e+08
4.71293e+08
3.12486e+10
7.49736e+10
6.33547e+10
4.33709e+10
6.39859e+10
8.72552e+08
1.20676e+08
4.76093e+10
8.29572e+09
2.42596e+09
3.69647e+08
2.53827e+08
1.37162e+10
5.86622e+10
6.10441e+10
1.23521e+10
1.27864e+10
8.38166e+10
5.37609e+10
5.98516e+09
5.16562e+10
3.28272e+08
1.0133e+10
4.83478e+10
8.31539e+10
1.02589e+11
4.90179e+10
2.91515e+10
5.33125e+10
3.99202e+08
5.47912e+08
4.35516e+08
6.7315e+09
6.6301e+09
6.03272e+10
1.42567e+10
1.49677e+08
5.87171e+08
5.17239e+10
5.95987e+09
3.85177e+08
6.4539e+10
9.84171e+09
2.41973e+10
1.49976e+09
4.42775e+10
1.65497e+10
7.67296e+08
4.71221e+09