/*--------------------------------*- C++ -*----------------------------------*\
  =========                 |
  \\      /  F ield         | OpenFOAM: The Open Source CFD Toolbox
   \\    /   O peration     | Website:  https://openfoam.org
    \\  /    A nd           | Version:  8
     \\/     M anipulation  |
\*---------------------------------------------------------------------------*/
FoamFile
{
    version     2.0;
    format      ascii;
    class       volScalarField;
    location    "0.0001";
    object      k;
}
// * * * * * * * * * * * * * * * * * * * * * * * * * * * * * * * * * * * * * //

dimensions      [0 2 -2 0 0 0 0];

internalField   nonuniform List<scalar> 
23640
(
4563.64
19899.6
152.489
178923
16910.8
4311.4
7144.11
9389.08
18460.1
12206.1
60202.7
11144.6
3320.87
17071.8
9361.04
9412.15
2661.23
47981.3
59340.3
26793.6
48159.2
93.7446
49593.7
22072.3
11806
6332.01
48444.4
28224.8
2133.41
7226.42
6399.55
302577
46771.2
19132.2
25050
7075.24
2777.46
8512.26
467.568
25395.6
17033.6
19154.7
17992.5
756.599
255829
55322.4
3975.63
15172.3
12755.8
8508.26
303013
59758.3
6552.75
4478.94
183776
1220.39
38826.4
19200.2
23419.9
232073
7149.57
52937.9
75626.5
61299
21630.4
60764.1
8556.76
13024.2
19301.3
16512.2
26258.5
18747.7
41536.9
3719.95
7829.21
300851
149.363
3204.7
59150.1
74442.2
57368.4
36456
28810.4
29307.5
21694.4
4745.64
59096.4
5649.51
23930.7
8852.68
17229.6
18650.4
22785.4
47311.2
64157.4
5468.24
61454.5
2347.99
18456.5
17662.1
25567.2
4394.63
15645.6
2923.58
24321.3
7970.41
63288.5
2994.8
11964.8
18310.1
9553.48
42513.9
14315.2
18105.1
13265.1
6288.02
8604.21
8733.99
4348.7
7542.39
5504.56
301378
2583.93
302233
42772.6
20554.1
303024
33692.4
5414.47
17922.9
30610.9
30000.7
3297.82
47412.7
3375.97
2758.23
51179.9
12508.7
60122
60447.2
18338.1
48890
40211.7
61067.4
30994.9
15403.9
57822.3
32978.2
18658.6
19544.2
7696.03
279.788
26036.4
116084
34407.6
6371.01
6955.36
16688.9
5561.13
48126.4
6309.68
7183.28
7254.52
6593.09
6082.21
4877.91
37753.8
49542.4
71570.1
29439.5
14434.5
13255.8
8917.13
11369.2
68989.8
62815.2
18054.1
17996
75119.7
9773.32
254837
1077.15
12306.2
28360.9
2043.62
59643.4
42429
25422.8
215537
30006.8
8954.12
55243
299873
25324.2
2763.19
19538.8
24399.9
75845.8
1592.64
48314.7
59486.7
805.573
7604.99
19713.2
55394.6
19554
1119.02
48277.9
20915.4
43671.7
16946.9
13147.7
5785.32
19349.6
87.3876
17948.7
14088
26478.5
13199.3
961.782
6053.38
57358.3
59289.9
11572.9
24762
13561.6
7623.69
301816
967.797
17641.7
4854.73
2885.02
24085.9
13924.9
16210
36401.5
27513.5
18227.6
19148.1
52375
26803.2
6385.27
16850.1
20095.4
164813
3517.63
5955.13
2209.25
89522.1
19296.5
241796
7540.15
3984.95
67755.3
20392.7
25992.4
275.992
3116.09
95677.6
81575.2
226894
8669.37
27156.7
11628.7
1653.49
18254.6
44230.3
19061.5
19295.3
59655.6
23610.3
2413.71
2445.3
220799
30225
18822.1
1907.13
301323
64419.7
11119.2
19311.1
1396.97
60186
63144.5
20310.8
53580.9
14571.7
14460.1
24176.3
62924.3
7440.94
2762.28
17948.5
11314.3
59822.3
14012.4
15971.4
3798.87
7530.57
3531.34
50354.7
61014.9
301954
18085.8
50472.1
3606.39
32594.2
52266.9
209600
38408.9
2487.71
32768
69517.9
53741.3
58235.3
44450.1
25598.9
181.652
64193.4
15203.2
4215.54
18449.5
25068.8
27835.4
3512.91
30035.3
105323
12802.8
4141.05
302825
62305.3
9478.62
28925.9
36430.5
14813.3
17490.2
1383.2
24295.4
13469.7
7361.8
3141.57
36044.3
34061.3
301282
45273.5
48592.2
52215.9
10362.8
13235.5
23808.1
80506.3
27768.5
2986.55
8512.99
24819.8
5588.22
6274.39
7537.55
71957.6
58094.1
42031.4
54717.9
59932.4
3269.77
18192.2
1236.43
3589.46
21876.7
60252.7
7932.27
32555.6
15544.3
2470.8
58214.2
42082.4
2929.45
256441
525.598
12946.9
42647.9
43340.1
15854.6
17159.6
38675.4
18615.2
6100.82
15426
4340.14
22215.3
2054.2
61063.4
2125.57
445.524
7810.77
24765.3
24943.4
300835
5795.31
3904.49
52174.7
1277.48
10348.8
24073.5
2574.77
3234.08
7344.1
159014
2298.83
13730.8
6644.38
70767.2
88411.9
71026.4
8506.82
59447.2
15856.1
53217.8
4153.11
6901.26
21741.3
96099.1
60401.3
7490.64
65778.8
15551.7
4231.88
301775
2462.35
54253.5
8356.74
2138.25
271266
41433.6
47609.7
36706.5
46296.6
35414.6
7955.25
45296.1
233193
36866.8
66210.5
4454.7
14240.4
54225.1
14107.2
52696.2
21947.1
59412.2
21598.6
303014
9485.7
72192.6
1647.56
44518.6
4878.49
23091.1
31878.9
81257.1
15048.7
6228.6
20666.5
15170.2
302996
11900.7
7714.87
11668.5
450.114
23622.1
8095.51
29306.3
6983.96
232506
652.468
2160.13
54717.3
25824.6
303002
32108
295424
15963.8
1806.32
22907.5
14932.8
11644.7
18024.1
36414.1
1007
5063.01
4842.35
41658.4
287591
3051.2
19036
12806.4
7209.54
23630.1
63094.1
16077.5
5959.01
5293.9
73441.4
3899.71
16457
5959.21
20343.2
24603.4
2393.39
2734.39
3339.03
55486.2
4100.1
9090.85
6066.2
47014.4
14159
14672.9
2602.58
20527.5
63553.3
68725.7
60862.4
303013
5926.15
24547.2
14616.7
44063.7
7133.09
43848
25070.8
8061.01
26163.6
37589.1
6548
2128.46
4270.42
7585.06
26623.9
2980.54
16622.1
7203.29
6186.71
13246.7
7351.52
4238.02
21460.7
6193
29513.5
10059.7
10219.1
48654.6
14082.3
1586.41
928.266
44804.4
5199.46
15385.5
5087.77
52441.6
74298.3
1548.05
38640.3
17056
48912.5
59630.7
49080.7
11194.4
54601.3
24083.2
11903.2
303012
16793.7
12634.5
6477.48
8234.9
60004.9
3265.44
5327.92
23437.5
3690.14
274639
18025.5
7865.61
7769.34
53869.8
23300
4504.48
23396.5
6210.45
55100.4
88294.4
11839.5
18375.4
21050.8
21764.9
63941.3
25736.6
47610.3
7146.13
22700.7
60500.1
59498.6
97796.9
34790.8
8000.03
3130.8
24833.2
3504.62
13863.9
43394.3
6931
7795.49
10962.1
11301.3
677.191
24949.3
2750.85
16981.9
4147.4
302006
55917.7
15880.8
17881
89783.7
16683.3
62694.3
10117.5
57695.7
5799.35
4708.19
1420.67
13387.6
937.028
9571.07
847.325
207482
5394.07
10709.1
5379.58
7541.13
20697.2
1827.65
37113
3102.84
1535.76
18267.5
57708.2
46880.1
6465.11
10605.7
19693.7
300969
28223.9
17744.7
26052.4
204937
16632.6
36378.5
3723.84
1637.48
22453
54734.7
6043.21
29437.4
18.4282
15.7118
4237.44
299631
27854.2
16486.2
301591
16094.9
7802.34
16790.4
64285.6
3576.09
4325.02
15930.8
5608.03
74294
248033
14578.6
15619.2
814.326
15845.8
5143.16
174285
18223.3
56778.8
301427
2074.91
1188.95
38462.7
18618.4
60722.9
2380.24
20725.9
18853.7
27380.6
13902.4
302675
64460.3
20710
18732.8
3655.57
17462.3
19758.8
25292.6
32860.7
23133
47067.4
19621.2
20749.1
1248.01
78.4899
6113.93
2445.35
16102.1
46638.6
3229.39
25578.8
54178.8
24123.6
1183.09
34375.7
68.0322
1696.62
3196.05
22850.6
152984
21032.9
6716.97
66993.1
29744.9
4564.56
13006.6
268.815
15865.4
70282.7
21198.3
7715.24
15748.3
71801.2
25682.7
3026.6
60148.7
6460.73
13760.1
2483.13
6257.65
59068.4
3926.53
14008.4
5053.39
18347.7
303008
42073.9
3146.43
59330.3
23864.8
7634.59
23313.8
46646.4
9696.03
151795
1393.44
64149.5
19907.3
48360.5
33645.8
16737
19141.5
55865.5
14669.2
22660
3596.07
62526.5
12595.7
62489.6
1900.16
24795.7
302375
276.331
2164.11
2414.39
287211
46174.6
3848.71
29650.6
14572.9
715.632
8900.74
34056.6
5910.58
1502.34
28186.1
1502.53
63452.6
3507.86
24010.7
21763.8
83205.1
12709.6
9409.22
22981.5
200193
16906.7
54891.6
54299.6
6089.61
8330.31
23486.3
15095.4
154902
3941.47
5503.85
8873.11
3197.85
8461.1
12901.9
13932.3
114.69
4135.83
28623.7
1164.98
30811.4
31328.1
6331.24
24470.2
46857.1
4997.85
41640.3
4332.45
62896.6
14410.5
15039.7
8138.35
54299.1
448.885
4104.69
61859.6
7344.98
61404.8
13762
3926.38
5781.29
118152
5097
22691.2
16562.4
9893.99
3118.64
14587.9
5444.55
61033.5
303014
13511
33298.3
21694.3
28654.7
23355.3
4275.38
7072.34
24842.4
52050.1
3148.54
61204.8
7236.31
281610
5754.97
32424.7
31615.3
65667.2
54752.8
302987
2195.48
93839.1
49163.1
3105.53
2222.39
24463.6
9091.75
61334.5
4506.51
25407.5
3648.32
72235.7
31000.4
169179
5783.12
262.466
47431.3
13249
3614.31
3740.52
33571.5
1186.78
7659.22
713.014
25888.7
58662.5
1297.25
22344.8
4987.68
48739
250.508
35774.5
5098.8
21467.5
5879.69
41090.7
1838.39
13289.8
30393.8
152851
5542.18
52402.9
76223.1
54569
64221.4
7061.14
35394.9
7791.37
21944.7
3885.91
7365.53
2709.2
13489.5
9106.93
299257
62584.3
46370.2
151.889
22919.8
239266
39283.1
6229.29
10507.3
15912.8
79010.7
4196.75
3276.8
4258.05
899.198
65408.6
31966.9
40200.8
39785.3
2560.5
7586.51
16765.7
57388.3
6753.87
3888.39
21816.5
9009.91
49287.3
281.624
12606.1
3739.44
22985.6
15698.3
53656.9
4689.88
12937.5
5774.48
8376.14
215682
22015.1
6250.74
59266.5
4144.22
56019.5
15600.9
4358.28
3456.74
21997.9
4461.14
13163.4
51249.1
2452.79
19240.5
12372.2
9041.83
6462.43
42526.3
713.109
4411.9
29197.5
60148.1
4707.46
154958
13990.3
21586.7
30749.7
11870.8
220545
21665.5
19400.2
25719.9
2814.96
4842.96
62245.1
30643
6063.7
52760
36725.9
2922.43
1736.26
681.963
1473.09
6147.69
8078.07
7903.65
20331.1
27495.3
6041.77
8447.3
21677.9
129.066
54894.7
297520
1267.71
25290.7
31773.6
2160.27
23944.4
105519
13167.4
6819.65
58571.4
33295.6
9656.19
22206.4
3944.61
7537.22
3761.43
9493.31
8389.69
4520.04
5231.03
42696.1
1542.14
8597.41
3422.2
51652.7
17250.3
54712.9
284822
23253.9
28730.8
10033.5
265871
21800.1
42947.3
6919.8
58475.9
11039.4
189.597
18652.4
16069.3
24274.1
3224.26
92093.7
6900.38
3503.26
870.053
49954.4
61271
3325.69
40525.3
1576.17
13594.8
36903.1
35554.5
13238.7
47026.1
7446.64
21575
26302.1
3435.37
7785.36
24049.8
55489.7
401.47
7893.21
23638
59680
15066.9
20832.9
27547.2
11963.7
7850.08
25749.1
17159.6
9539.57
3994.02
4831.4
3909.4
5807.51
19110.6
607.677
421.754
142242
2248.76
21492.8
44626.8
2836.56
10134.9
55733.7
32416.1
17776.5
5108.88
4638.41
11042.1
16097.9
50607.6
58640.1
984.519
31503.2
39260.9
3140.2
4044.93
2493.75
3572.65
302374
6061.29
19458.4
6005.14
264039
45537.6
5309.54
5363.82
69506
302964
2896.73
1168.49
15518.2
878.119
1862.48
64429.1
3087.99
5098.89
55929.2
14742.6
30544.9
138632
127319
2060.63
54772.6
79042.2
6814.74
10921.8
6286.15
20017.5
2861.36
61485.5
1990.36
30117.9
51385.1
18521.9
5247.86
50994.5
6002.49
26892.9
32102.3
46998.4
24104.6
22300
48967.6
13995.7
6125.8
29722.5
2053.31
10795.2
18027.2
5856.28
45475
8258.02
11581.6
4088.39
55572.2
54604.7
2245.35
2529.82
52434.7
38592.5
5867.68
20190.4
6871.49
38935.4
6182.51
5493.35
15319.8
17272.4
8414.53
2431.9
303011
9074.65
61885.2
18520.7
10344.3
62281.2
12713.3
2591.62
32145.4
8438.48
21935.5
2702.63
58124.8
4712.44
12908.2
21270.9
14459.6
4104.46
7757.92
5587.1
57671.5
4303.14
594.213
22201.1
7683.84
6364.44
56902.1
57364.8
21120.6
80213.3
60664
244551
31787.8
5451.88
18901.8
58302.3
7059.38
81.3759
5816.57
15697.2
8410.44
796.35
16496.1
11684.7
25434.6
9159.13
64094
12432.8
1208.19
15193.5
43683.7
11888.2
1156.74
296106
3524.15
28042
2938.21
4636.53
35119.3
9232.02
3427.89
6710.97
5048.98
65822
19814.7
37670
49662.5
33955.5
6240.88
7550.04
83.6729
2269.92
7210.64
7128.77
597.992
672.005
177.583
14426.8
52180.3
55515.2
61737.1
13975.8
5412.1
3969.4
58665.4
20342.9
60615.5
4038.33
4080.26
3844.67
4111.21
348.141
8645.94
16660.4
9333.17
13209.6
6275.68
3381.74
46017.4
57163.4
20009.5
6132.99
16107.3
8235.62
9112.98
2018.99
6861.1
5924.57
7519.77
303011
21498.7
16880.7
24943.3
56118.1
58255
52151.3
7944.37
7670.45
30077.1
59026.5
11298.6
24432.7
4375.01
24274.6
1645.5
4253.22
30910
5403.62
33234.8
2153.17
31821.2
13938.3
33502.3
12251.8
11916.2
18397.4
19139.4
68923.8
8107.77
49556.2
12393.8
69515.3
63969.5
3550.5
1608.6
4868.36
672.845
4834.61
23887.2
32322.5
60882.9
15614.4
78155.3
2243.26
19673.7
8464.71
26210.1
21219.9
302948
25992
19817.3
42803.8
31105.2
2726.93
34558.8
3087.9
5765.45
22502.6
519.649
302780
12350.4
138417
7059.48
4314.91
2028.97
14206.5
12320.7
19755.2
4527.86
57535
36380.8
89.2834
1858.77
10188.9
13710.2
9385.46
53900.9
19960.9
39837
24567.2
49576.4
69020.2
48854.1
7704.28
5758.09
5358
12613.1
36315.7
7066.26
32711
49012.1
18466.5
56796.5
16615.2
1759.38
487.39
23158.1
16061.6
26514.9
2188.08
62841.2
63727.1
6837.39
16063.6
3506.09
5370.48
1504.12
17488.2
11251
5846.65
7438.53
26709.2
12946.3
57512.5
22484.4
47158
79312
8503.4
1492.91
26683.7
25635.5
10111.5
34129.5
3508.14
17790
5553.95
4258.42
4747.9
87.7676
2493.06
4572.16
53600.1
5561.45
13301.7
4628.74
21265.8
2332.46
3013.9
1034.76
732.329
5479.43
57119.9
928.633
3350.58
198837
3200.27
21926.7
6178.94
23553.4
63043.3
929.204
250595
189199
7166.68
207.566
302984
3014.49
23180.2
30524.4
46918.4
16348.5
15461.4
31190.6
15813.9
14837.4
3013.38
32975.4
191001
32753.7
8244.2
60521.9
23213.1
686.063
24185
41306.6
68471.9
77946
6194.98
5730.95
129569
8904.58
14261.9
7107.05
21672
50705.4
4708.14
5313.68
5773.97
6997.74
64547.3
6833.98
8167.47
14185.1
42648.5
37931
9768.06
104023
266853
70830.1
239978
1859.23
33605.3
24480.3
19927.7
20252.8
30233.5
6664.9
6232.7
63731.8
819.695
39855.8
59771.3
6999.03
163085
140678
61870.9
303014
7069.76
22685.2
19120.7
21177
62090
49924.1
2062.68
916.583
25259.6
9802.54
17992.5
30098.9
12002.8
74634.6
6649.12
14950.9
22334.3
2214.57
24974.6
65875
9812.37
5188.83
141315
17025.2
25349.1
4084.81
16019.7
25342.8
22547.1
4801.36
31410
2124.08
43928.5
303032
134746
6211.3
3393.95
4786.95
118500
2160.13
23987.1
9580.26
15711.6
28125.2
36795.3
57300.8
20007.5
36376.9
4514.89
192.878
40259.9
21802.8
19910.6
303013
6555.4
13026.4
17682.8
157285
7303.59
18335.5
57087.2
8592.13
52342.4
21251.8
20755.5
31301.3
140850
17154.8
21778.8
8328.84
5373.62
64796.3
4186.36
7102.54
18041.5
37364.9
25275.8
75112.3
37924.7
52494.1
13457.4
13054.1
24573.5
12075
48006.3
5417.69
14302.9
299495
63250.6
5085.13
28856.3
1869.02
34627.8
3131.18
60062.4
21069.1
2030.13
85603.6
76890.9
5643.89
24669.1
90890.9
1585.96
29365.4
14555.5
13744.8
18442.2
1876.8
10129.2
20768.3
41488.1
24434.8
43926.7
64823.1
40578.3
340.375
24800.2
4402.52
12920.3
297011
37650
55877.7
296354
12478.6
9610.34
8215.92
125086
3978.89
4815.75
10742.8
23845.7
93742.3
2206.42
15611.5
5907.05
31668.8
47438.8
33716.9
57237.4
2886.66
4159.26
44582.1
47942.9
30207.6
300160
1746.26
831.271
4107.56
50605.1
9758.68
3751.67
14567.3
8259.08
299560
4544.14
2541.55
8690.41
2075.21
295766
279057
4036.35
50471.9
13353.6
14486.7
34816.1
21914.6
46712.4
18681.1
15423.1
9469.2
12209.8
1266.52
28655.1
5365.53
2424.96
34293
7578.76
3277.02
4634.9
4309.92
75198.4
5341.02
240666
2153.42
8579.07
7654.88
38219.1
53388.7
13917.2
48852.3
55472.6
18862
6084.26
303012
22500.2
549.583
9777.48
48678.6
20374.4
12570.6
95225.3
46408.8
73132.1
70990.4
2920.98
892.032
1972.41
14251
2951.39
48808
59530.2
2541.57
59458.5
4204.97
2095.8
5802.78
59074.6
45004.3
12936.3
7907.48
54904
17482.4
2318.93
23038.6
2181.09
301945
9326.25
43700.8
48581.5
23079.3
43550.9
23796.8
5229.44
12286.2
303022
16333.4
56933.6
15878.5
4782.96
9966.24
185586
151349
5348.83
20418.8
64721.4
5727.63
31057.9
24692.6
62821.5
27334.4
24304.1
3441.63
54405.4
54827.6
69065.6
10509.1
167868
12136.9
3244.51
271.478
17903.5
46980.3
67875.2
33017.9
60512.1
50814.5
27651.5
10853
48825.6
15695.2
9135.78
16148.1
6038.32
18681.4
56973.9
8918.68
839.158
25067.3
5521.28
19259.7
42164.6
41989.9
8967.87
3451.43
13858.9
23428.5
8089.03
2558.72
15921.3
295317
2739.53
2819.84
6484.37
3227.99
12888.7
19176.3
63171.5
55011.3
16359.9
7302.58
3221.28
288098
38396.6
10544.3
16228.3
60992.3
8516.88
65956.8
65563.9
1753.12
60244.7
58925.2
7152.15
7428.7
29966.3
16698.7
4703.62
2300.59
4511.98
581.954
1067.27
724.823
517.231
4608.66
1794.88
3380.46
22837.7
47277.4
4889.49
2493.65
64045.8
6463.28
303011
7116.16
2471.39
18147.7
1147.16
58368.7
3655.65
25904.9
6744.4
27540.9
30667.1
4681.08
20200.8
12692.4
19189.5
16007.3
24899.4
52162.3
14820.4
16773.6
404.396
5793.19
11733.3
30652
26095.8
31880.2
86544.8
4489.68
5523.78
3670.57
1151.48
3507.61
4291.49
21244.3
10251.7
6647.22
52067.9
1357.62
292193
19292.4
34224.4
44195.8
6813.77
289493
41355
20903
511.423
47865.6
4769.57
53554.1
87320.2
6912.58
21595.5
9714.88
6568.15
209696
11863.7
18889.8
18601.2
35144.1
8232.11
2547.71
25635.8
6484.33
17850.4
26183.4
1965.04
38918.5
8463.86
9303.66
37737.6
14857.9
9995.65
63088.7
23777.5
69633.9
250219
57397.1
62171.6
20993.7
1698.76
19948.9
45960.7
4935.42
4600.53
5457.76
13150.2
51104.3
755.468
2513.06
14508.5
63535.7
48581.3
9379.96
55875.5
303022
4074.81
50889.7
42086.4
43761.3
54655.5
2299.44
215536
41346.1
22546.1
63473.9
123366
8798.64
12671.4
19953.8
19.7331
14238.6
23177.3
2848.54
8512.38
1062.05
32895
3781.69
23297.8
51228.1
7642.84
7548.8
6539.26
10862.6
66862.7
27542
3413.48
14283.8
7161.14
18194.7
31887
5474.57
57394.9
9333.91
19128.7
7992.41
6840.56
5708.38
46251
7254.88
60369.6
303001
4156.2
42501.3
6354.34
24048.3
19595.8
8571.92
10690
20702.6
56046
13238.9
35385.3
23877.7
17774
16787.4
25555.3
72619.1
14470.9
14719.9
3823.79
5074.39
53732
1181.39
21383.7
5652.43
4873.02
23985.5
7760.42
36764.2
18388.6
5497.17
27718.7
121324
16813.2
15499.2
27073.2
50145.4
48984
70612
60712.4
59048.1
1171.46
25698.7
20.8004
61376.3
6799.24
1308.01
28442.9
32831.3
32732.3
59678.2
12577
29108.9
33874.9
34028.8
60782
21717.6
34119.6
56066.5
2965.86
9707.38
10516.7
43943.5
4775.6
3759.77
7856.51
21116.7
27134.7
37134.7
7379.2
7416.36
17089.1
20090.3
1715.82
753.984
12798.5
12894.3
46257.8
17343.4
28072.4
10047.3
61038.2
39349.4
33595.5
63735.4
18028.9
21987.1
60356.8
113542
302651
17156
49975.9
37779.1
26357.5
49708.2
62702.2
24209.6
7863.56
5190.28
6894.57
1557.4
9509.96
1861.6
4085.5
188689
144679
12627.7
66914.5
8415.95
4539.91
51926.5
5642.66
30576.7
106259
19599.5
25432.5
4506.83
18519.5
300667
22966
29165.9
9721.24
15509.2
5049.86
3334.83
10017.7
55817.4
3231.13
9864.64
302988
469.867
37277.8
4463.6
43328
7009.91
55994.7
47699.2
15667.4
4838.85
21207.4
30108.7
69639.6
13658.5
5159.39
38053.8
21168.2
51327.8
5960.47
24582.8
3437.53
2982.34
83321.9
54362.3
21210.2
9914.16
17645.7
18841.8
13329.2
2672.41
46424.5
2513.65
24061.5
55724.6
22657.5
297154
17118.2
17088.9
1993.25
114664
23911
9227.11
6352.15
1481
14164.4
7243.61
18031.3
27254.9
3456.12
19908.2
6998.74
7003.72
10072.2
5905.45
4263.26
12540.1
7773.24
2338.43
3114.09
23900.1
6702.84
3230.82
43924
19182.2
4175.47
151986
28455.4
7847.52
70818.4
151317
14469.5
17833.1
55878.8
113622
5490.54
30527.5
271379
17876.9
202794
762.4
19361
1136.02
3191.5
9983.5
55999.4
3178.8
17316.9
29123.8
34747.4
14979.6
5059.86
6050.16
28352.4
6938.47
422.967
14729.3
5387.28
3085.04
17799.1
6248.4
46032
61135.3
9675.93
2942.88
25799.9
17547.1
60292
24390.4
19026.7
13431.5
11547.9
53446
3943.52
37339.9
41016
445.77
7796.46
5737.15
5050.19
9568.22
5270.65
18892.9
85726
9473.14
13402.2
8480.26
18103.8
53417.3
19352.8
296910
11197.8
13678.8
2537.16
6160.51
7708.47
55842.2
9707.68
101357
204578
87102.4
2553.54
59822.1
1673.46
1559.97
22029.8
2407.06
5654.55
23943.8
742.381
21789.2
7147.98
3333.52
23585.1
2616.82
244055
8438.4
20983
2212.88
49914.3
14330.3
5741.03
97493
241095
264.146
99741
2477.33
6169.34
6370.32
23172.5
13483.3
6135.66
7765.91
64492.6
8766.64
87692.6
37823.6
20489.3
1866.46
7685.44
16132.4
14657.5
70610.3
12684.4
8440.01
38226.4
5683.18
16687.1
11620.2
29246.6
32840
61834
2439.27
29980.4
1959.19
18137.2
30527.2
34401.8
23451.3
2075.61
7429.93
27614.7
23993.5
16267.5
61687.1
6316.66
9960.95
11671.7
19116.2
61769.5
4346.41
303014
41035.1
1379.52
19527.3
4728.22
337.87
18825.3
1445.65
4625.89
60321.9
21606.5
27840.5
284341
7601
54454.8
174690
53431.3
22924.5
11613.3
11828.2
3923.09
39069.5
3211.1
7422.22
6106.76
12964.1
47536.6
7960.46
12082.2
4266.72
100221
54091.4
59791.9
13584.2
12271.2
3601.77
25.4435
51498.2
2775.93
26.7229
7598.69
8282.63
7078.46
28651.2
51040.6
23781
12787
7729.97
20296
2398.85
17829
46760.7
23496.8
6101.79
6164.96
51750.2
3306.42
2657.78
5043.53
164542
32999.7
17676.8
27113.6
69596.7
19259.1
1354.79
59552.2
2866.32
4560.58
1842.17
6206.53
31547.4
40404.4
27931.9
16278.9
4350.09
3754.47
8635.56
6225.33
2431.36
38222.9
39167.4
61535.9
63900
25147.3
8219.77
425.6
43757.3
10994.7
12737.5
1718.55
6133.56
13530.5
62634.2
63164.1
17822.9
19511.9
60679.7
12478.6
4836.68
81860.1
1678.54
8355.58
55798.1
148025
4644.73
60122
6352.47
49147.4
5866.15
2211.95
8818.5
8365
10817.3
86196.2
12199
562.062
4522.47
24340.7
7120.89
5388.89
13921.6
14038.7
25371
5364.97
36374.7
7330.67
8854.85
6110.79
6313.57
1440.36
61416.4
5774.69
26093.5
111.143
18705
60669
983.319
56570.1
55145.9
147424
924.878
4429.95
4248.73
1752.93
15031.9
17655.5
16228.3
148083
4805.59
19225.9
18827.7
24015.7
12059
7356.59
48994
13270
3440.88
2838.85
19429.3
4257.09
9583.18
4254.9
1770.31
19834.1
14782.3
6672.04
18043.5
170330
4160.78
2802.06
4226.47
8714.83
30934
56182.7
67466.3
20445.3
53942.8
7433.75
13170.8
51111.1
21883.3
90369.9
1881.16
3108.72
4736.55
10955
18760.7
24330.1
12003.5
192502
110735
11388.7
65072.4
4799.78
68148.4
12982.2
2625.27
12058.6
6812.53
8059.64
60419.8
123190
7396.9
47428.3
19809
145677
27638.7
5746.07
59201.4
56106.9
37776
924.415
170264
3081.28
24105
3347.97
1238.44
5355.4
5396.16
24362.7
14812.2
25556.8
184769
4623.62
56394.3
40763.1
53665.4
42697.4
58165.3
17769.5
17722.1
1474.24
7799.17
6685.61
45784.8
9738.11
104.607
58113.7
72020.1
37201.1
15645.4
7015.65
8217.49
3263.44
8582.65
3899.8
10983.1
5818.62
100662
26158.4
27324.5
13889.8
471.189
9493.66
1797.47
19270.3
48452.4
1593.46
4539.22
7229.59
42306.2
19359
1087.28
4275.45
27658.8
37160.4
20832.8
16165.2
16419.4
16931
6785.57
3909.81
5525.76
7912.4
12596.6
22116.2
21643
77492.7
20320.1
6811.66
37603.6
53655.1
78182.3
26032
19118.2
22218.4
3179.15
5846.55
302992
9045.56
12485.7
30470.1
24245.4
9126.2
16741.9
55093.6
55564.6
165510
69538.8
302971
4104.36
37211.7
13434.7
14783.3
14287.8
3871.07
42976.2
60727.5
37838.8
4986.73
62429.5
3331.56
4421.52
9204.07
19772.3
10791.7
73479
8808.44
20366.9
4842.28
25551.1
25803.8
13772.2
44547.6
23533.3
17813
17537.7
1613.49
300940
2414.68
26157.1
4690.93
7656.42
4374.28
7490.03
24317.9
5786.69
27645.8
9281.42
8673.99
8552.33
6739.13
11754.2
13243.2
14.4937
45511.5
9080.38
13812.5
51396.8
2441.96
6616.55
4845.94
19070.4
46002.2
27456.9
26010.5
10147.4
34794.2
27630.7
4442.66
19923.5
36653.1
9961.08
626.63
18604.5
4161.16
24859
7694.35
27738.6
516.63
6493.47
7377.94
4899.05
57958.5
24551.2
63049.6
10900.6
89194.1
1915.33
15740.9
55965
4184.99
674.377
53293.3
61598.6
4227.65
60962.4
14465
10686.5
108391
20198.3
53343.6
3658.81
16851.3
1934.68
15.5822
3150.86
7588.64
22697.6
19545.8
107841
62299.9
5170.14
22100.5
59875.5
8978.71
303010
2150.9
13785.4
19461.1
4054.04
106439
4214.68
48512.1
4080.73
6965.07
18199.6
15880.2
14255.6
24991.1
2725.93
15378.4
1498.31
41835.9
149488
63968.5
4003.05
173151
6121.42
8276.41
18540.8
198.386
8433.04
6682.59
12879
17388.7
6321.87
15205.5
23570.4
11743.3
15948.8
3297.82
66940
14575
23588.4
2754.04
27202.4
16174
5040.73
2635.85
2172.71
204774
54104.3
34884.4
11286.5
293044
3267.92
2424.14
22496.9
7026.37
17734.2
303018
8821.92
858.992
55071.9
5504.58
303020
2692.32
54821.4
33603.4
2789.2
23255
3957.96
18155.7
3226.94
48366.8
144044
6609.52
174428
42592.4
4339.99
40355.6
4207.98
32849.4
18884.9
19185.3
5086.54
5703.53
17455.5
61484
44034.9
24233.2
8416.43
190034
8915.54
4452.67
14222.1
6381.36
169916
5077.25
62025.3
52499.2
14606.5
16365.8
14045.1
9788.89
636.184
68985
50616.7
7102.59
42762.3
13411.8
20219.3
60916.8
4741.63
12134.1
1912.07
44787.2
48627.6
22215.8
87987.5
23336.9
20733.6
14743.3
27030.7
12142.7
23242.9
4565.75
15308.9
12547.5
9179.35
5467.79
4361.78
10111.5
19950.1
60424
10694.2
55795.7
17997.3
11611.1
25390.4
2951.9
3255.67
9257.63
13417.1
50002.5
4635.96
11922.2
63139.1
2987.63
9092.15
38809.8
8330.77
10027
23303.8
3414.85
119752
302118
17639.6
50343.5
9612.46
6918.65
5279.04
21836.2
2445.26
16926
1424.32
45449.3
3443.16
4393.98
1579.92
44285.7
1789.67
63823.4
6887.2
3716.98
6939.47
18510.2
12097.2
4855.3
4359.19
4735.71
5672.66
4584.31
936.313
51553.7
8037.1
25193
28110.4
2339.79
46544.4
14844.3
112282
41894.2
11265.1
2569.9
3687.81
23820.2
4548.57
9759.64
57894.3
15089.6
19886.6
5996.39
55088.1
4307.56
1424.92
224973
10037.1
2339.5
46365.2
4932.58
18915.6
2213.14
13816.8
30587.8
11275.8
31346
3154.72
32011.9
6532.23
6259.19
43816.3
23993.4
140438
1561.52
6443.69
2731.64
4629.37
9616.76
17807.8
3844.64
53197
281601
70866
27369.2
61101.5
1360.87
24362.8
13246
15710.6
11324.7
9476.09
3172.08
25342
29138.8
15498
12919.3
2536.13
5545.58
12232.5
5048.28
2016.25
15320.8
13916.4
23625.5
24009
32654.9
15950.4
26050.5
12715
22979.7
60947
24228.3
4132.04
2659.61
10359.2
24279.6
7035.58
64401.4
3128
21662.2
21947.4
13546.6
199124
88809.5
4462.71
14658
16823.9
10301.9
24111.8
2628.06
3303.09
102359
2416.71
9593.28
40635.3
16701.5
46815.5
76669.1
7931.53
41225.2
11484.1
6764.31
26453.4
16461.1
9856.12
71804.4
4235.43
40074.5
123480
55452.1
7151.04
274750
17233
28604.9
24382.2
6871.54
1127.08
303022
302119
23884.6
4599.17
7192.74
13714.7
32175.3
17339.7
611.658
206294
27897.1
2035.26
5960.54
89781.4
30798.8
13533.9
95301.7
14843.9
25151.5
6120.22
51121.1
25097.1
15075.5
227387
9360.29
24605.2
98378.3
50871.2
31415.6
202128
5527.27
64726.7
2190.73
11033.3
42367.4
5283.94
19095.6
5256.45
12422.7
19390.9
20128.3
14618.7
64147.6
23987.1
17203.1
60671.6
18829.9
25017.7
5227.74
17338.6
46237.8
6861.09
4986.13
4122.69
12969.9
3167.98
9249.85
6535.06
26022.1
24317.2
1474.77
10864.8
2818.83
150739
31064.4
42672.8
5938.27
28470.8
58630.2
214838
17840.9
2378.86
23683.5
10532.1
10283.9
9847.29
7860.68
4936.92
42276
59179.3
20287.4
7699.28
4513.63
96712.4
61727.7
1622.44
5609.19
27503.9
4653.94
227640
8804.22
12165.4
20221.6
13724
13538.4
57678.9
4918.83
2512.82
43215
9432.16
41159.3
48539.2
5002.14
6017.35
6593.41
17172.4
55731.9
261722
10028.5
36014.4
173096
303019
59447
25022.3
5003.21
58460.1
6103.74
5779.19
1209.02
5930.26
6655.61
41472.8
13683.5
22073.9
58323.1
12156
22834.8
5244.25
54304.1
60949.4
8553.56
134366
5825.27
43690.5
302083
301665
4980.25
9152.84
17604.6
6668.71
10964.5
25858.8
87153
11339.5
61805.1
56943.8
2552.58
4812.93
877.621
1750.53
4786.67
383.631
1322.32
447.644
4034.23
15426.6
887.157
60555.9
12474
3823.43
57657.7
10936.8
25225.8
15254.1
10274.6
22091.4
33116.2
18807.9
5613.92
2306.23
36403.9
5631.88
2625.96
5012.81
16621.6
11947.6
4829.27
4912.81
47459.8
27954.1
23499.2
10853.1
22316.1
9689.53
5128.66
23830.5
1350.02
5469.14
60874.5
211466
2757.95
19473.1
4920.54
7926.52
7131.06
6370.54
5205.21
30882.2
55067.8
60909.5
48704.3
3352.77
46543.7
13763.9
2258.84
12374.7
23736.8
14479.1
1788.36
3397.38
33020.5
56313.9
2101.38
10386.3
38880.3
3703.3
43133.7
7228.81
17888.4
2257.86
8311.11
19372.5
6168.89
21348.9
4895.94
7949.97
6259.4
3171.29
5498.43
22533.4
59911
204803
66868
11198.6
1657.18
25297.1
18947
22994.7
3520.9
21278
301598
70853.9
17005.6
15413.6
59559.7
34058.9
1805.5
219422
26688.8
21727.3
23907.5
121042
44174.8
20170.6
25772.7
38062.5
33979.2
48380.4
7385.22
37157.8
3963.24
35178.4
65771.8
53044.3
4433.81
21853.2
13896.6
40749.1
4230.9
54472.3
7244.69
1055.23
7306.91
23961.4
14918
12229.6
105926
2079.07
37301.4
56450.3
1521.42
41264.1
43947
40343.1
57583.3
41896.4
5542.56
14099.7
13848.5
1295.86
23866.8
9582.21
51909
13885
26377.7
61722.2
23082.1
8701.09
16598.6
48546.3
21566.7
2304.18
19461.5
23914.1
1545.76
62240.1
13585.7
5623.5
25133.1
21261.5
39996.8
17792.1
272.274
3217.29
2112.37
79517
59607
23932.9
50281
50856.4
23960.1
55849
17982.7
58252.3
12371.1
66346.3
12140.4
17583.1
301651
60890.1
159108
6931.55
24339.6
12386.8
8220.38
2890.75
18862.5
14071.5
14874
21579.2
17416.4
41818.3
20364.5
36157.5
59102.2
114889
6044.57
97825.3
190275
143140
10971.9
2326.21
21938.2
56372.8
21641.6
22110.5
5338.68
11665.4
6060.35
6128.14
17505.1
52673.3
43447.8
54469.4
45558.8
23889.2
11473.2
1390.86
123050
58520.2
3431.7
4619.1
17380.1
9354.63
54397.3
28611.5
4218.25
15494.6
4904.06
11073.8
16111.1
3235.71
46669.4
8099.95
151276
16650.2
38561
144368
1411.24
47684.4
261639
239387
4526.46
87905.7
8235.46
57781.5
59384.2
2713.51
1532.08
24368
58116.1
56334.8
18124.3
59328.1
7325.11
6822.2
6754.8
20475.8
6704.05
1229.3
34870.2
18848.3
7762.32
19298.8
3735.64
11127.7
45438.8
8875.02
16717.9
4314.09
4619.28
8217.53
7295.02
811.18
4614.15
22094.2
7620.22
40240.7
54157.5
27760.3
23105.7
58076.9
12968.2
24153.3
150324
125749
20431.6
2017.93
6124.93
17141.9
62583.3
4855.91
34896.6
8929.17
4021.26
3602.35
1277.13
20245.8
5802.02
7185.18
21737.8
11077
1297.41
287723
64463
5638.94
20682.1
24897.8
7139.38
91281.6
16837.3
58200.8
10306.9
44221.4
15281.1
18658
12907.4
162089
9955.83
29794.7
35940.6
19200.4
26092.7
2349.72
2372.46
137388
14552
26787.8
5952.63
7169.73
4762.06
15606.2
56560.1
20537
2565.55
60793.6
42054.3
14258.5
57153.5
44028.7
13669.7
6601.93
27808.7
16218.7
12529.4
4879.31
59273.2
61335.2
302389
40239.5
6884.14
3143.61
13294.8
52650.7
1494.47
56585
705.004
302233
23558.6
8114.93
4286.34
7633.38
3828.78
46570.1
62032.7
59366.4
20690.7
39707.9
75862.5
14846.8
4078
28821.1
9718.08
870.096
8431.65
9039.25
14450.9
42736.4
59596
1514.6
57682.9
302982
34928.6
17634.6
1488.63
11422.9
50808.1
57500
6030.85
17098.3
12264.9
23909.8
5424.69
44669.2
12232.9
50869.3
43153.9
21913.7
24625.6
15847.9
15040.6
54454.7
8473.07
5667.24
59115.1
13948.2
14976.8
18301.1
64646.6
19211.1
19259.1
33611
10847.8
6063.98
45482.2
46351.1
4193.08
44022.3
23632.3
302963
9351.38
61177.4
55064.6
3661.64
24503
17108.9
29469
2120.16
43973.2
1482.53
12396.8
23769.4
6827.99
8955.1
23390.8
18782.3
6734.55
54545.3
43013.7
7102.15
7498.2
27008.7
3631.06
21624.5
55798.6
2686.05
21067.2
30154.1
6970.15
3498.27
59773.8
47762.7
7598.18
103769
986.187
94430.9
26269.1
4652.45
3591.46
18357.2
59287.7
19472.6
7959.66
3752.53
37685.5
22011.1
12211.7
63606.6
46769.7
22933
8020.45
4873.83
4241.66
50089
50922.1
46898.9
14135.9
10737.5
18202.2
58326.5
52622.7
6898.4
303014
5322.85
6579.62
200738
4234.41
60325.1
50364.3
30081.4
907.482
4661.55
4669.37
1490.1
303.49
4152.29
571.858
2830.99
630.7
2601.25
369.493
1441.44
4220.26
944.635
51669.2
18326.5
23153.6
15835
27498.3
4851.47
4753.84
1909.76
49809.9
7693.3
302987
302357
3969.02
13385.7
21660.9
7973.31
8323.64
50479.2
40153
52609.8
60977.5
4843.45
300078
22555.5
7445.04
50731
16363.6
60530.5
9776.58
60754.1
3904
25909.5
2584.93
50819
5024.59
302994
11151.6
33908.3
42495.3
57048.8
9732.49
46579.8
93390.2
5837.42
22371.8
16626.3
28185.7
6594.63
58580.9
3961.59
101713
39673.6
30209.9
48285.9
2919.58
49909.8
50766.9
55997.6
20520.9
13413.1
26609.4
34380.5