/*--------------------------------*- C++ -*----------------------------------*\
  =========                 |
  \\      /  F ield         | OpenFOAM: The Open Source CFD Toolbox
   \\    /   O peration     | Website:  https://openfoam.org
    \\  /    A nd           | Version:  8
     \\/     M anipulation  |
\*---------------------------------------------------------------------------*/
FoamFile
{
    version     2.0;
    format      ascii;
    class       volScalarField;
    location    "0.0001";
    object      nut;
}
// * * * * * * * * * * * * * * * * * * * * * * * * * * * * * * * * * * * * * //

dimensions      [0 2 -1 0 0 0 0];

internalField   nonuniform List<scalar> 
23640
(
0.00224611
0.00556933
2.59715e-05
0.0374986
0.00556699
0.000107298
0.00117298
0.00231422
0.00226206
0.000190243
0.00762458
0.00130141
0.00106009
0.00560012
0.000206824
0.000472937
0.00164489
0.00276048
0.00637766
0.00272844
0.00485494
1.41481e-06
0.00512606
0.000523068
0.00411555
0.000724879
0.00474873
0.00318103
0.000792813
0.00365013
0.00322181
1.46658
0.00457504
0.00219062
0.00202699
0.000106027
0.00172513
0.0164457
2.02165e-05
0.0011048
0.00172946
0.0024975
0.0056649
6.89916e-05
0.104338
0.00350788
0.002395
0.00159491
0.000207212
0.00210721
10.2212
0.00520908
8.04464e-05
0.00272005
0.0400337
1.31667e-06
0.0117675
0.00538979
0.00581581
0.0526608
0.00424386
0.00450444
0.00977306
0.00569123
0.0052489
0.00554808
0.000494843
0.00453752
0.000203571
0.0055384
0.00115342
0.00216009
0.00278005
0.00154866
0.00034259
0.282708
3.61478e-09
0.000931071
0.00639118
0.00993239
0.00352127
0.00215724
0.00693833
0.00708158
0.00525202
1.62945e-05
0.0050279
2.72554e-05
0.000521814
0.000212712
0.00461902
0.00532834
0.000736657
0.00397161
0.00619589
0.00432789
0.00582741
7.78092e-06
0.00301704
0.000463323
0.00116693
0.00269742
0.000209295
0.000768121
0.00162611
0.0163708
0.00437121
0.00107191
0.00139461
0.00351139
0.0129962
0.00299034
0.00183507
0.001738
0.000123755
0.0104234
0.000170486
0.0137161
0.00219998
0.00381635
1.71888e-05
1.3365
9.86702e-06
1.64818
0.00391379
0.000590343
13.7227
0.00126872
0.000157333
0.00165377
0.00356966
0.00192876
0.00104058
0.0045172
0.000991182
4.11644e-06
0.00562089
0.00435429
0.00760856
0.00582909
0.00321533
0.0161002
0.00246093
0.00782295
0.00108168
0.00438618
0.00704113
0.00216664
0.00482878
0.000189039
0.00178239
1.59291e-06
0.00655046
0.0193269
0.003149
0.0120969
0.00109147
0.00203251
0.000319186
0.00471601
0.000108431
6.72708e-05
0.000109771
0.000419583
0.00978536
0.0115218
0.00212548
0.00202967
0.00561735
0.00189496
0.00141615
0.000129602
0.00044872
0.00132323
0.00725828
0.00608972
0.00170953
0.000260495
0.0100165
0.00471826
0.103653
6.14523e-07
0.00431787
0.0032202
0.00078793
0.00472377
0.0040856
0.000941186
0.0361541
0.00336357
0.000469965
0.00652398
0.803325
0.00644463
0.00125184
0.000570934
0.00161313
0.0134765
1.46182e-06
0.00316468
0.00706063
0.000216049
0.00648612
0.00270839
0.00586199
0.00470508
6.06269e-07
0.00485941
0.000432799
0.0029301
0.00556298
0.00458663
0.00269968
0.00471019
2.0531e-07
0.00436498
0.00129292
0.00274815
0.00136262
0.000339821
0.00283002
0.00699332
0.00703234
0.00135163
0.000749904
0.00173317
0.00085745
1.51915
0.000292714
0.00468762
0.00242397
0.00119354
0.00259828
0.00477441
0.0019893
0.00223387
0.00131535
0.00437409
0.00494331
0.00216668
0.0012888
1.92351e-05
0.00173982
0.00283028
0.0325944
0.00191658
0.00178974
5.40082e-06
0.0137103
0.000431057
0.062851
0.000799267
0.00236949
0.00692425
0.0049695
0.00116883
2.60323e-05
0.00136772
0.00916478
0.00670214
0.0651467
0.00782091
0.0015376
0.00137399
0.000872871
0.0056883
0.00428078
0.00276002
0.00481989
0.00501846
0.000741255
0.00114704
1.95077e-06
0.0411338
0.00104529
0.00219151
0.000790901
1.28729
0.00641402
0.00128738
0.000500552
0.000670803
0.0044718
0.00829835
0.00187372
0.00420184
0.00202936
0.000543625
0.00421573
0.0082508
0.00450513
0.00118018
0.0044813
0.00107458
0.00753534
0.00375598
0.00149482
0.00151157
0.00088392
0.00172162
0.00203841
0.00570093
1.74673
0.00520753
0.00544652
0.00214978
0.0021646
0.0037402
0.0533295
0.00216863
0.000806296
0.00141574
0.0074095
0.00526994
0.00674987
0.00431887
0.000980478
2.40893e-05
0.00623961
0.00101714
0.00144164
0.00216066
0.00199434
0.00315431
0.00106212
0.00105983
0.00150363
0.00344682
0.00108756
5.12594
0.00410637
0.00244924
0.00326938
0.00390846
0.00553053
0.00508085
1.06734e-06
0.000833423
0.00344271
0.000863888
6.18838e-06
0.00152413
0.003155
1.0936
0.00442331
0.00274994
0.00433385
0.00121333
0.00168563
0.00261765
0.006712
0.000932809
0.00116397
0.0149801
0.00199712
0.00875368
0.00172611
0.00668896
0.0089115
0.00715825
0.00406207
0.00632502
0.00568843
0.00159311
0.00450458
0.000487283
0.00376196
0.000609971
0.006614
0.00399469
0.000836292
9.56993e-05
0.000755867
0.00677994
0.0038782
0.00109787
0.04876
0.000172155
0.00344676
0.00429633
0.00313372
0.000102657
0.00424306
0.001874
0.00383925
0.00452089
0.000372893
0.010038
0.000778839
0.000840285
0.00526628
0.000310561
5.57709e-08
0.000115131
0.00125585
0.000894199
1.02842
0.00310095
0.0022999
0.00398762
7.37986e-05
7.53386e-05
0.00402754
0.00115094
0.000974247
0.00083357
0.0238761
0.000908773
0.000343185
0.000438626
0.0154469
0.0134707
0.0066969
0.000465288
0.00740296
0.00165125
0.00414197
0.00242743
0.000384436
0.00246672
0.00950912
0.0051116
0.000878686
0.00906052
0.000285973
0.00317157
1.24718
8.77063e-06
0.00623631
0.00116724
0.0012846
0.14331
0.00277324
0.00466487
0.00409416
0.00462751
0.000987086
0.000145568
0.00153611
0.0290471
0.00393303
0.00757185
3.77136e-05
0.00021949
0.00504227
0.00134105
0.00413301
0.000631541
0.00722545
0.000599196
3852.6
0.000616269
0.00771043
0.000185051
0.00186972
0.00220084
0.00413299
0.0021332
0.00581621
0.000322122
0.000319925
0.00197771
0.00186079
444.54
0.00026938
0.00386546
0.00026355
1.37846e-07
0.000810234
0.000387349
0.00348909
0.00431494
0.0713418
0.000223103
0.00029594
0.00424157
0.00658035
48.8654
0.0014011
0.1738
0.00192065
0.000972737
0.00286562
0.000241523
0.000365549
0.000322634
0.00247216
0.000302308
0.0019238
0.00206227
0.00428586
0.0851367
0.000842213
0.000359923
0.00365208
0.000814095
0.000787418
0.00380706
0.000219621
0.00298557
0.00420517
0.0102934
0.0026314
0.00477473
0.0042678
0.00505887
0.00126608
0.000708398
0.00115425
0.00111218
0.00382342
0.00144575
0.000105691
3.24066e-05
0.00449798
0.00168282
0.00180923
0.00113879
0.00298551
0.00833379
0.0080595
0.00507139
7051.39
7.98762e-05
0.00487413
0.00186252
0.00377972
0.000372886
0.00325566
0.00606351
0.000908016
0.000897578
0.00177933
1.09601e-05
3.54575e-06
0.00263726
0.000104671
0.0015037
0.00109999
0.00129639
0.000602972
0.00440827
0.00360897
0.000862119
0.00171588
0.00598151
8.96617e-05
0.000973405
0.00407927
0.00405493
0.00176749
0.0048051
1.53917e-06
0.000307393
0.00152243
0.0040418
0.00505104
1.05315e-05
0.00588695
0.00839624
4.42909e-05
0.00313268
0.00490286
0.00314699
0.00586976
0.00497352
0.000711981
0.00585658
0.000453448
0.000222374
2285
0.00555491
0.00361151
0.0123004
0.0142422
0.00654593
1.6983e-05
2.14332e-05
0.00115153
0.00221543
0.159131
0.0064768
0.00812605
0.000434524
0.00533838
0.000491412
0.000352982
0.0011482
0.000707452
0.00598276
0.0132526
0.00405558
0.00176107
0.00328431
0.00531933
0.00621853
0.00270045
0.00442064
0.00435205
0.000724214
0.00765307
0.00727208
0.00885558
0.00153889
0.00397176
8.57936e-06
0.00112634
0.00108724
0.0016578
0.00362215
0.00380384
0.00174646
0.00129898
0.00531153
6.14524e-06
0.00118224
8.98036e-06
0.0042621
0.00171673
1.30127
0.00593812
0.00151722
0.00178153
0.0135526
0.0052865
0.00582361
0.000746206
0.00672106
0.00449766
4.34669e-05
0.000527077
0.00193803
4.27716e-05
0.00463032
0.000318441
0.0512175
0.00431606
0.000752185
0.00256843
0.00013437
0.003112
4.39456e-06
0.00286291
0.000847125
1.51698e-06
0.00647445
0.00669166
0.00419838
0.00570854
0.00124366
0.000589406
1.00783
0.000759563
0.00471613
0.00272334
0.0195402
0.000241724
0.00248388
0.00160457
3.62002e-05
0.00281151
0.00334587
0.0109897
0.000947891
2.81399e-08
1.34619e-08
0.0010568
0.613771
0.000819318
0.00124143
1.39241
0.00360744
0.000883907
0.000540385
0.00645845
0.00125296
0.00270774
0.00538317
0.00227807
0.0104566
0.0629187
0.00629886
0.00508706
9.329e-05
0.00195126
0.00269853
0.0312367
0.00196827
0.00322826
1.2127
0.000752416
7.55442e-07
0.00109938
0.00575623
0.00496557
0.00145361
0.00100595
0.00154256
0.00125907
0.00178142
0.349177
0.00644234
0.00227288
0.000313114
0.00106507
0.0017261
0.000555281
0.000917679
0.0021182
0.00132551
0.00396709
0.000529356
0.000440153
0.000512723
7.02086e-07
8.35413e-05
0.000222766
0.00183466
0.0044433
1.8914e-05
0.00166896
0.00425139
0.000788649
0.000521584
0.00340704
7.98745e-06
0.000882326
0.00164824
0.00187371
0.0288455
0.0063531
0.00491067
0.00863346
0.00168972
0.00813552
0.00164957
4.25208e-08
0.0016535
0.00930959
0.00646131
0.000756047
0.00192603
0.00962056
0.000584454
0.000847766
0.00340096
0.0041431
7.18949e-05
0.000726942
0.00452717
0.00515039
0.00481103
0.00517704
0.00382068
0.0056626
51.5477
0.00440846
0.0012301
0.00499182
0.000979796
0.0142499
0.00570993
0.00180775
0.00500931
0.0234022
2.23489e-06
0.00848581
0.00234905
0.00373646
0.00336327
0.000728372
0.00240321
0.00341217
0.00185796
0.000454712
0.00142364
0.00520844
0.00603699
0.00570372
1.47583e-06
0.00108747
1.78463
3.63493e-05
1.89629e-06
8.51616e-06
0.0784109
0.00413808
0.00154738
0.00330402
0.00187129
0.000241405
0.000163809
0.00139012
0.00450344
0.000575976
0.00134087
2.29539e-05
0.00746746
0.00194989
0.000966958
0.00338463
0.0160163
0.0037612
0.0148115
0.000701724
0.0208022
0.00199864
0.00555576
0.00611661
0.00452596
9.39461e-05
0.000622109
0.00504679
0.0217652
1.64121e-05
0.00024207
0.00176556
1.68762e-06
0.000175563
0.00151969
0.00623842
4.25232e-09
4.29629e-06
0.0032246
1.803e-06
0.00183416
0.0036037
0.00334126
0.000830304
0.00192794
0.00386556
0.00440614
0.00152572
0.00616013
0.0018295
0.00596755
0.000330766
0.00510076
0.000141985
0.00222868
0.005956
0.000284675
0.00785758
0.0013037
0.0060977
0.00379394
0.0197867
0.00400259
0.000829329
0.005559
0.00476445
0.000920565
0.00042918
0.00155422
0.00654408
2488.94
0.00192955
0.00215367
0.00325068
0.00140345
0.00139392
0.00225192
0.00432717
0.000354394
0.00466435
0.000872989
0.0077996
0.00684125
0.198744
7.33618e-05
0.00111256
0.00192645
0.00760359
0.00637946
22.3131
0.000873211
0.00146125
0.00132979
0.000818033
0.00102591
0.00111897
0.00438335
0.00581519
0.00146149
0.00055989
0.000153805
0.00944397
0.00356981
0.029635
0.00149269
1.653e-05
0.00466967
0.0015441
2.20901e-05
8.63889e-06
0.00314393
9.58852e-07
0.000677354
0.000140303
0.000825563
0.00681853
7.08787e-07
0.00611515
0.00180718
0.00226924
4.11043e-05
0.00252694
0.000303911
0.0031174
0.01113
0.00152743
0.000700691
0.000215306
0.00224954
0.00539575
0.00435346
0.00469467
0.00718318
0.00579671
0.00824846
0.000264605
0.00146574
0.00381798
0.000723695
0.00269079
0.000104759
0.00123444
0.006076
0.0001125
0.0529228
0.00606435
0.0037545
3.18555e-05
0.00188624
0.0780683
0.00253877
9.29631e-05
0.00426312
0.00336325
0.011407
1.59455e-05
0.00357852
1.52701e-05
9.45768e-06
0.00850205
0.0026132
0.00333805
0.00148266
0.000883725
0.00528083
0.00149349
0.00699629
0.0124345
3.06815e-05
0.00553855
0.00431732
0.00295274
7.14333e-06
0.00112201
0.00129428
0.00135208
0.00442933
0.00551424
0.00149159
0.00149389
0.000403393
0.00074086
0.0259003
0.00581175
0.00070912
0.00723941
0.00221176
0.00669687
0.00622775
3.16564e-05
0.00125472
0.0019187
3.91658e-05
0.00116953
0.00506169
6.68696e-06
0.00563512
0.00145727
0.00076195
0.000744697
0.00303611
0.000164969
0.00293241
0.00158559
0.00650812
0.00158482
0.0250101
0.00396624
0.00194745
0.00181821
0.00575953
0.0299361
0.00545785
0.00375874
0.00180128
0.00011199
0.00160214
0.00559883
0.00341023
0.000102347
0.0044273
0.00169233
0.00107995
1.32626e-06
4.29993e-07
0.000717559
0.00428245
0.00819294
0.00146835
0.000466574
0.00469085
0.00113439
0.0014615
0.00236815
6.33041e-09
0.00560026
0.472557
0.000573979
0.00101789
0.00336118
0.00106736
0.00480396
0.0110994
5.29921e-05
0.000753332
0.00576753
0.0031647
0.00210683
0.00251588
0.0012369
0.00405097
0.00172614
0.000248117
0.00439806
0.00259369
0.00173013
0.00379886
3.2816e-07
0.00163894
0.000937436
0.00287849
0.00135585
0.00413519
0.226218
0.00134388
0.0068526
0.00118995
0.125167
0.000650831
0.00314476
0.00432553
0.00476385
0.00361838
1.50921e-08
0.00232992
0.00132199
0.00065755
0.00150045
0.0141812
0.000787526
0.000713718
0.00030858
0.00409055
0.00435505
0.00011395
0.00267047
0.0006015
0.000209961
0.000700131
0.000876352
0.00342467
0.00465107
0.00477062
0.00554479
0.00110619
0.00120695
0.00011942
0.00156221
0.00472388
9.77061e-08
0.00014492
0.000810096
0.00662785
0.000245795
0.00187982
0.00312947
0.00401975
0.00372017
0.00133069
0.000219908
0.00463175
0.00205682
0.00185856
3.33736e-05
0.000666367
0.00374147
0.000209496
4.14377e-05
0.0255389
0.000868588
0.00632866
0.00418033
0.00128288
0.00508619
0.00418688
0.00119986
0.00244205
0.00188644
0.00152516
0.00353941
0.00459722
0.00325125
0.00512081
2.93479e-07
0.00358285
0.00226188
0.000880228
0.00132105
0.00095705
0.00126357
2.39659
0.00421034
0.00229488
0.00422422
0.124845
0.00369097
3.49712e-05
3.65431e-05
0.00706345
1.44214
0.00094275
0.000459973
0.00353534
3.49629e-07
0.000822187
0.00644383
1.15266e-05
0.0111874
0.00667235
0.00202029
0.000811054
0.0243989
0.00958836
0.00122041
0.00474271
0.013277
0.00542024
0.00512971
0.00126576
0.00228591
0.0013053
0.00417484
3.77291e-07
0.00353873
0.00563132
0.00199058
3.09952e-05
0.00361758
0.00323941
0.000973371
0.00270357
0.00352297
0.000527197
0.00278134
0.00488947
0.00100473
3.67881e-05
0.00220819
3.28791e-06
0.000143273
0.000425028
0.00426401
0.00372024
0.000432606
0.00420656
0.00202319
0.00560694
0.00576749
0.000705166
0.00155984
0.00547006
0.00102628
0.00890978
0.000493195
0.00345367
0.00186688
0.00401892
0.000286951
0.00345102
0.00536358
0.000852112
0.000901825
2954.06
0.00132211
0.00796655
0.00556036
0.000590804
0.00804359
0.00155052
0.000719785
0.00362717
6.59896e-05
0.000657217
5.41132e-06
0.0071565
0.00658484
0.0015568
0.00632499
0.00140294
0.00129496
0.000782249
0.00239586
0.00550118
0.00277373
0.000202318
0.00606345
4.84792e-05
0.00414708
0.00412799
0.00698382
0.00175196
0.0116629
0.00350522
0.0856465
0.00270003
6.91682e-05
0.00564559
0.00578078
0.00377883
7.07027e-06
0.000674664
0.00116214
0.0137317
0.000219411
0.00454184
0.00135505
0.0016824
0.000465349
0.00422492
0.000200305
0.000471198
0.00436366
0.00218149
0.00145351
4.77368e-07
0.00431635
2.44996e-05
0.00274498
0.000994043
2.13048e-05
0.00398756
0.0100177
0.000744498
0.00373341
0.000206167
0.00886299
0.00167127
0.00171105
0.00492297
0.00229482
0.00437677
0.000889429
7.74904e-07
0.000844235
0.00440272
3.63672e-05
3.73789e-05
3.57157e-07
4.2655e-05
0.00411464
0.0056096
0.00480447
0.00791828
0.00137762
0.00432911
6.04361e-06
0.00472775
0.00185952
0.00764961
4.79086e-05
0.00225932
0.00173673
0.00122908
8.78514e-08
0.000481426
0.00167721
0.000233225
0.000195412
0.00415298
1.02997e-05
0.0046179
0.00586938
0.00572096
0.0112437
0.00420001
0.000836513
0.0100697
1.79839e-06
0.00377456
0.00303705
0.00335202
6410.9
0.000627894
0.00142469
0.00205222
0.00567529
0.00718515
0.00567485
0.00407689
7.21063e-05
0.00354117
0.00695318
0.00149894
0.00544377
0.00163257
0.0021897
0.000854731
0.00158035
0.00278691
0.0122179
0.00274041
0.000828472
0.00198554
0.000106225
0.00332213
0.00458289
0.00118255
0.00211233
0.00177719
0.00575102
0.00412934
0.00253182
0.00116879
0.00867238
0.00703741
0.00131531
0.000639801
0.00376665
0.000235969
0.00195119
0.00139642
0.00242118
0.00772112
0.000301671
0.00933363
3.9769e-06
0.00226435
0.00999842
0.00189173
0.00239186
11.6258
0.00116005
0.000203883
0.00168842
0.00197235
9.66598e-06
0.00160178
0.000864709
0.000709958
0.00195163
1.99915e-05
1.07113
0.00465784
0.0219651
0.00450677
0.00174928
0.00073821
0.0062956
0.0013941
0.00177695
2.68603e-05
0.00597768
0.00250538
3.20149e-07
0.00100564
0.00510278
0.00208898
0.0139234
0.00418661
0.000505612
0.0010751
0.00220912
0.00410304
0.00951212
0.00442775
0.000911859
0.0105415
0.000154056
0.000270133
0.00124721
0.000767688
0.00339286
0.00477838
0.00229077
0.00354864
0.00132862
0.000976552
1.66816e-06
0.000518454
9.38105e-05
0.00072739
0.000909163
0.00816981
0.00607238
0.000138594
0.00639935
0.00126072
4.695e-05
0.000741179
0.000426353
0.00132853
0.0110294
0.000783133
0.0019174
0.00473175
0.00702325
0.00262361
0.00309898
0.00968039
0.000635879
2.62683e-05
0.00216835
0.00237776
0.000653597
0.00344753
0.00130716
0.00533205
0.00267958
2.56424e-05
0.00333516
4.48766e-07
9.21855e-06
0.00311202
0.00562036
0.0097897
0.00173118
0.00315109
0.000705259
4.42827e-05
0.000527361
0.000306067
0.000262483
0.00434427
0.00661564
9.19543e-07
0.0011114
0.0244157
0.00101501
0.00238474
0.00194714
0.0013723
0.00586955
4.15285e-07
0.0942141
0.0185828
0.000786135
3.51232e-05
876.028
0.000788378
0.00194286
0.00106219
0.00426445
0.00549711
0.000334167
0.00348945
0.00638448
0.00136563
1.43203e-05
0.00242136
0.0317605
0.00127719
0.000915653
0.00519267
0.000333094
6.61154e-05
0.00115751
0.00219591
0.00938367
0.0106656
0.000108404
0.000689513
0.00459842
0.000394362
0.000288767
0.000811304
0.000265564
0.00550553
0.00321456
0.00219078
0.000720015
0.000790127
0.00639402
0.000746349
0.0038694
0.00622342
0.0032188
0.00149163
0.00114961
0.0164708
0.132594
0.00775847
0.0548446
0.0010129
0.00344319
0.000603587
0.000474259
0.00221415
0.00194695
0.00100094
0.00396118
0.00636128
3.00382e-07
0.00167628
0.00660081
0.00106927
0.0315418
0.0125214
0.00583713
3510.9
0.0057086
0.00527885
0.00152755
0.00232883
0.0037952
0.00137488
0.000772877
0.000361172
0.000747761
0.00502171
0.00535857
0.000814363
0.00137544
0.00928531
0.000546597
0.00139512
0.00626294
0.00124544
0.000852325
0.0088615
0.00207742
0.00287535
0.00479419
0.000310577
0.00745012
0.00220713
0.00541274
0.000864971
0.00494714
0.00272954
0.00292945
6.15988e-06
0.0041354
13.2411
0.020481
0.000401149
2.31771e-05
4.10945e-05
0.00165548
4.00005e-05
0.00142638
0.00487315
9.86347e-05
0.00696618
0.00274589
0.00561744
0.000405147
0.0151563
0.00308266
9.4346e-06
0.00303156
0.00466694
0.00589469
1210.91
0.000735497
0.00118401
0.000464878
0.0248808
0.00399856
0.00256436
0.00563378
0.00126576
0.00412394
0.0054306
0.000343548
0.00339616
0.0244945
0.00135974
0.00271287
0.00020655
0.000482693
0.00638259
3.93743e-05
0.00323407
0.000426912
0.00410333
0.0019526
0.0107559
0.00415609
0.00380434
0.00598435
0.000206929
0.00640311
0.0058055
0.00471534
0.0105745
0.000294007
0.688125
0.00598826
1.46529e-05
0.00149652
0.000263172
0.000977788
0.000937247
0.00461254
0.00526993
3.44584e-06
0.0116906
0.00986859
0.00238372
0.00118368
0.0139487
0.000647439
0.00331822
0.00182045
0.00122539
0.00150096
0.000883258
0.00144029
0.00430202
0.00329384
0.000883024
0.00405738
0.00832685
0.00389359
5.98942e-06
0.00117989
0.00282669
0.000915875
0.209422
0.00293073
0.00382008
0.387121
0.00599722
0.00107797
0.00241629
0.0212333
0.00186734
0.00367635
0.000538876
0.00652277
0.0145604
0.000711446
0.00118068
7.53885e-05
0.000840575
0.00437734
0.00295921
0.00691864
0.00130678
0.00234707
0.00356154
0.00345379
0.00331139
0.738396
0.000866544
0.000166523
0.0022061
0.00438556
0.000655519
0.00119811
8.46156e-05
0.00389317
0.62263
0.00183259
0.000581196
0.00415397
0.00120702
0.00389927
0.00378752
0.00214334
0.00435018
0.00483101
0.000992759
0.00214057
0.00496827
0.00447738
0.00220126
0.00116795
0.00193689
0.00591056
0.000496178
0.000920379
0.00424967
0.000887783
0.00391396
0.00451916
0.00102077
5.99543e-05
0.00340115
0.0107458
0.00161939
0.0305437
0.000179951
0.00265369
5.82426e-05
0.00280835
0.00568608
0.00619367
0.00491044
0.0059184
0.00241131
0.000271737
1425.67
0.000812288
0.000189875
0.00110237
0.00484788
0.000412924
0.0046462
0.0148625
0.0045484
0.00556214
0.00936334
0.00158462
0.000321108
2.15067e-06
0.00407515
6.10101e-06
0.00288017
0.00703806
8.07761e-06
0.00730441
0.00651963
0.00125348
0.000434327
0.0057239
0.0043634
0.000865086
0.000894942
0.00641911
0.00549888
7.38697e-06
0.000716142
0.000364846
1.465
0.00210048
0.00388454
0.004742
0.00131729
0.00161987
0.00144842
2.29888e-05
0.00457192
147.8
0.00421209
0.005446
0.00190232
0.00269941
0.000271809
0.0396987
0.0279684
0.0103027
0.00189505
0.00640439
0.000492994
0.00360241
0.00105514
0.00603831
0.000488606
0.00115857
0.00302894
0.00564136
0.00479428
0.00912301
0.00496731
0.0277838
4.15266e-05
0.000965699
3.4041e-05
0.00548886
0.00471096
0.00817295
0.00291545
0.00515929
0.0119248
0.00679266
0.000651236
0.00477362
0.00174971
0.000109981
0.00539403
0.000205931
0.000201193
0.00660737
7.60623e-05
8.30502e-06
0.00108005
0.00420676
0.00247454
0.00273909
0.00372598
0.000574344
0.000920193
0.00499458
0.00199975
0.00715725
0.00073215
0.00195244
0.423508
5.6028e-06
0.000961257
0.000304555
0.000947043
0.000759936
0.00224955
0.00608529
0.0038788
0.00431617
0.00799012
0.00238021
0.258613
0.00467161
0.00423365
0.00547107
0.00648805
0.00191729
0.0085605
0.00797532
0.000795332
0.00755225
0.00404776
0.00775242
0.000784245
0.00172387
0.00133861
0.00331319
0.00158111
0.00773867
0.000204046
0.000433723
0.000265376
0.000188865
0.00783709
0.00103104
0.00367417
0.00265905
0.00419114
0.00140084
0.000783914
0.0063965
0.00506915
2234.65
0.00317323
0.00097219
0.00205
0.000476772
0.0066695
0.00110951
0.00189233
0.00474269
0.00270016
0.0061698
0.00815638
0.000555236
0.00420384
0.00231529
0.000337473
0.00126469
0.0022456
0.00189677
0.00216139
0.000131357
4.99162e-05
0.00422859
0.00122745
0.00125358
0.00103298
0.0117121
0.00301659
0.00431847
0.00159136
0.000280269
0.00114775
0.00254635
0.00179698
0.00371356
0.0136726
0.00561246
2.15659e-06
0.131232
0.00464557
0.00100863
0.00285375
0.00362499
0.12297
0.00390754
0.00190272
0.000164385
0.00234527
0.00225477
0.00564587
0.0120275
0.00358836
0.0053514
0.00469447
0.00343096
0.0539299
5.01979e-05
0.000550065
0.00181847
0.00149006
0.00436344
0.00101815
0.000792241
0.0030257
0.000330075
0.00244193
3.21647e-06
0.00259708
2.87713e-05
0.00371158
0.00288268
0.00110993
0.00476252
0.00606995
0.00136726
0.00957413
0.0779811
0.00667542
0.00808122
0.00598792
0.000909293
0.00221172
0.0044753
5.35867e-05
4.42692e-05
0.00432382
0.00114225
0.00466162
0.000261866
0.0015477
0.00182864
0.00625143
0.00476544
0.000988951
0.00548226
113.075
0.000346008
0.00320868
0.00377685
0.0028779
0.0053241
0.00137629
0.0579344
0.00313661
0.000760888
0.0062857
0.0213309
0.00207325
0.00360344
0.00573918
8.86056e-09
0.0018293
0.00290571
0.000653968
0.0115215
3.63965e-07
0.00191182
1.20888e-05
0.00054619
0.00226075
0.00134856
0.000135322
0.00357568
0.000635512
0.00801869
0.00187494
9.77047e-06
0.00571999
0.000119861
0.00142519
0.00340131
7.56884e-05
0.00647937
0.0110053
0.00465295
0.00134103
0.0128455
1.96604e-05
0.0019254
2.02519e-05
0.00597777
92.4274
0.00235003
0.00369061
0.000723595
0.00319549
0.00499132
0.00923448
0.00126905
0.00572534
0.00371679
0.000878808
0.00118346
0.00195685
0.00649411
0.00389995
0.000958765
0.00969726
0.000348952
0.00113522
0.00178269
2.57293e-05
0.00163709
1.16329e-06
0.00591476
4.68194e-05
0.000182838
0.00268551
0.000188305
0.00226909
0.0014803
0.00428843
0.00129967
0.0201213
0.00149675
0.00628011
0.000783879
0.00331014
0.00417671
0.0094457
0.00666192
0.00568895
0.000269983
0.00181986
1.42601e-08
0.00785527
0.00698734
3.53755e-05
0.00175427
0.00378015
0.00289721
0.0046092
0.00373742
0.0015046
0.00202356
0.00334457
0.00654998
0.00273017
0.00152038
0.005465
5.16749e-05
0.00108136
0.0013462
0.00407948
0.00924018
0.00228005
0.00370255
0.00524103
0.00125612
0.000931132
0.00551231
0.00327578
0.000760769
0.00397641
0.000864573
6.31991e-07
0.0017687
0.00461474
0.00249631
0.000409513
0.00323021
0.000121588
0.00517253
0.00289532
0.00247363
0.00605054
0.00223649
0.00202029
0.00649334
0.0186319
2.90613
0.00320276
0.00424137
0.00280057
0.00125212
0.00381006
0.00578189
0.00145741
0.0090322
0.00228814
0.00314933
1.12912e-06
0.00490995
0.000983023
0.0015686
0.0409101
0.026265
0.00314582
0.0089911
0.000365947
0.00295352
0.00460109
0.000100712
0.00345488
0.0169723
0.003575
0.00130224
0.00146222
0.00348051
0.775132
0.00182323
0.00157523
0.000104261
0.00120134
0.00234465
0.00180967
0.00507805
0.00584242
0.000890002
0.00505226
35.4011
0.000154131
0.00268401
0.00288956
0.00365478
0.000266686
0.00444363
0.00211907
0.00187106
0.00174598
0.00207564
0.0023234
0.00847011
0.000263973
0.00202284
0.00188826
0.00188298
0.00476314
0.00447905
0.00162222
0.000988822
0.00143664
0.010888
0.005867
0.00261386
0.00501689
0.00211785
0.00211375
0.00123347
4.87427e-05
0.00323135
0.00108657
0.00107763
0.0044193
0.00629628
0.405976
0.00218915
0.00445066
1.43637e-06
0.0172199
0.00138678
0.00234971
0.00312683
0.000723115
0.00627141
0.00273432
0.00213255
0.00313477
0.00145518
0.0017436
0.0129379
0.00411582
0.000730719
7.05264e-05
0.00128965
0.00146528
8.88625e-05
0.00116805
0.00150349
0.00272671
0.00347064
0.000831156
0.0037622
0.00563523
0.00236985
0.0291151
0.00341568
8.77117e-05
0.00992641
0.0252662
0.00632162
0.000546856
0.00247654
0.0171006
8.55275e-05
0.00166815
0.0505256
0.00655259
0.0377608
0.000272408
0.00173205
0.000486332
0.00176993
0.00507064
0.00391296
1.41362e-05
0.00444476
0.00324543
0.000977425
0.00352405
0.00928308
0.00429706
0.00684039
0.000755222
0.000142137
0.00513041
0.00412804
0.00145987
0.000340509
0.0093342
0.00456686
0.00774072
6.48784e-05
0.00103851
0.000810063
0.000227636
0.00516764
0.000997976
0.00223822
0.000967101
0.000128751
0.00420273
0.00134583
0.00410047
0.00295161
0.000138245
0.00366582
0.00448992
0.00839331
0.00389976
0.00287019
0.00230022
0.0123763
0.00104584
0.00122572
0.00188018
0.000142955
0.0221612
0.00218237
0.514799
0.00134133
0.00494291
0.000771257
0.000697071
0.000966525
0.00345891
0.00383587
0.0155895
0.0204246
0.0126294
0.000908651
0.00439673
0.000850899
0.000812907
0.00168226
4.06299e-06
0.00447538
0.00195681
5.31025e-05
0.00578148
5.15107e-05
0.00192439
0.00081089
0.000978077
0.0400121
0.00187933
0.00274674
0.000842297
0.00493641
0.0017232
0.000695857
0.0143223
0.0513664
8.60441e-05
0.0155338
0.000728318
0.000733145
0.00321428
0.0019381
0.000926611
0.000696792
0.00398266
0.00763658
0.0015801
0.0183009
0.000999779
0.00201274
0.000309135
0.000905697
0.000167096
0.00175988
0.00985458
0.00590594
0.000188818
0.00303583
0.00243189
0.00130603
0.004154
0.00191559
0.00209188
0.00799852
0.000858336
0.000726574
0.00107159
0.00427969
0.00166081
0.00359211
0.00322433
2.92257e-06
7.75907e-05
0.00673643
0.0013206
0.000182555
0.00382515
0.0040115
0.000732906
0.00409912
0.00207843
0.00389456
0.00267933
12.614
0.00411621
1.96997e-06
0.00156387
0.00316858
0.000107179
0.00549129
0.000678813
3.12211e-05
0.00657559
0.00560544
0.00317385
0.221188
0.00850252
0.00537548
0.0372086
0.006089
0.0064792
0.000776482
0.00355526
2.45039e-05
0.00183266
5.89123e-06
0.00537975
0.00441765
0.0018196
0.00164445
0.00433566
0.00584494
0.00257874
0.0149524
0.00551475
0.0103584
0.0034704
0.00149856
0.00220268
1.5047e-08
0.00478257
0.00107817
1.13817e-08
0.00610809
0.00112474
0.00242539
0.00188493
0.00495388
0.000890022
0.0016255
0.000743194
0.00148517
0.00123498
0.00587394
0.0023072
0.000657707
0.00066043
0.00405502
0.00460552
8.26449e-06
0.00079373
1.61779e-05
0.0060712
0.00140313
0.00142528
0.0005317
0.00881677
0.00233713
0.000454834
0.00649262
4.3613e-05
0.00179743
0.000722139
0.0134801
0.00190161
0.00244876
0.000867469
0.00153676
0.00140151
0.0011291
0.00104357
0.00426309
0.00112889
0.00420783
0.00184155
0.00537924
0.00847316
0.000889489
0.00696901
0.00013509
0.00361952
0.00131147
0.00601901
0.000719087
0.0133392
0.00120126
0.00601876
0.00588219
0.0023145
0.00267976
0.00395367
0.00026068
0.000351772
0.0116752
0.000772455
0.000620092
0.00579568
0.0237154
1.89262e-05
0.00663673
0.000124586
0.00407769
0.0077581
0.00080368
0.0160705
0.000935541
0.0015884
0.0110842
0.000939451
0.000189957
0.00313494
0.0010309
0.000765728
0.00678548
0.000270272
0.00180229
0.00239415
0.00172725
0.00268942
0.000292241
0.0091969
0.000713203
5.90497e-05
0.000665245
0.00789887
0.00377307
0.00224125
3.2993e-07
0.00416303
0.00334872
0.000363818
0.0067375
0.00604866
0.0275427
0.00033434
0.00286033
0.00270112
3.09634e-06
0.00114965
0.00549148
0.00402454
0.0278761
0.00981291
0.000499824
0.00271893
0.000799173
0.00435724
0.0020673
0.00399238
0.00129243
0.0014677
0.000889671
0.00246858
0.0027985
0.00235277
0.00274494
0.000932732
0.00587958
0.0018517
0.000114577
0.0055291
0.0352845
4.07547e-05
0.000717541
0.00252929
0.00342479
0.000921146
0.00385359
0.00914737
0.000511008
0.00236782
0.00391754
0.00595056
0.00401638
0.00167977
0.0137072
3.48509e-06
0.000824992
0.000454973
0.00127075
0.000519409
0.00476537
0.00146837
0.044076
0.0181218
0.000222023
0.00751324
0.00229213
0.0093132
0.000247391
0.00148826
0.00100203
3.67044e-05
0.00384395
0.00506584
0.00445546
0.000784258
0.00412059
0.00178481
0.0259871
0.00697326
0.00262601
0.00440908
0.00451746
0.00143126
4.17074e-05
0.0312826
0.00105256
0.00145048
0.00109669
0.000518364
0.00209557
0.00210658
0.000591535
0.00183676
0.00106751
0.0348078
0.000164104
0.00672671
0.00163791
0.00317756
0.00380664
0.0048968
0.000344611
0.0013626
0.00070314
0.0137926
0.000750168
0.00381584
0.00393968
3.85015e-07
0.00542891
0.00629645
0.00394395
0.004787
4.778e-05
0.000935776
0.000849566
0.00447558
0.00141828
0.000701506
0.000689927
0.0125333
0.00111514
0.00276069
0.00091589
1.55401e-05
0.00108103
0.000747177
0.00156538
0.00504465
0.000671887
0.00309395
8.66642e-05
0.00331259
0.00553478
0.000409718
0.00192837
0.00332251
0.00218207
0.00595013
0.00137378
0.00531251
0.00515657
0.00625969
0.00193089
1.5745e-05
0.00017968
0.00601276
0.000613601
0.00212706
0.0112754
0.000511462
0.00426567
0.00170293
0.00502968
0.0103125
0.00105756
0.00558693
0.0020323
0.00123702
0.00181433
34.49
0.00221843
0.00159595
0.00148938
0.00545049
0.0155804
0.00335072
0.00332078
0.00627287
0.0251782
0.00960839
7.1646
0.00258944
0.00161067
0.00583187
0.00351163
0.000148434
0.00157997
0.00189451
0.00326185
0.00417812
2.16392e-05
0.0055666
0.00207195
1.15014e-05
0.00359556
0.00278517
0.00534821
0.00977849
0.00122127
0.0022737