/*--------------------------------*- C++ -*----------------------------------*\
  =========                 |
  \\      /  F ield         | OpenFOAM: The Open Source CFD Toolbox
   \\    /   O peration     | Website:  https://openfoam.org
    \\  /    A nd           | Version:  8
     \\/     M anipulation  |
\*---------------------------------------------------------------------------*/
FoamFile
{
    version     2.0;
    format      ascii;
    class       volScalarField;
    location    "0.0001";
    object      p;
}
// * * * * * * * * * * * * * * * * * * * * * * * * * * * * * * * * * * * * * //

dimensions      [1 -1 -2 0 0 0 0];

internalField   nonuniform List<scalar> 
23640
(
20.9665
102.227
6.8832
30277
88.7502
417.791
38.5154
116.27
264.95
756.946
27669.8
79.3722
33.6082
82.5394
668.742
365.327
10.1779
16810.2
23232.4
236.27
26425.9
5.71243
26230.3
25816
122.351
57.9293
1941.86
313.011
13.7008
71.8301
27.064
65622.8
26467.4
123.99
304.918
701.614
10.8135
17.5226
12.4116
28490.7
122.892
268.144
98.3968
10.5169
30571.2
2807.05
18.1388
154.071
735.526
100.5
56123.2
18018.2
696.244
30.8279
30279.1
710.526
502.306
113.021
52.2234
31290.2
25.8059
2878.43
29598.9
18975.7
70.2671
18824.6
293.999
111.209
13560.4
92.7035
29304.6
120.691
23105.6
18.9847
350.602
62955.2
732.991
32.2806
23444.8
29405.2
3415.15
700.227
121.677
127.526
67.2331
841.063
17859.7
27780.9
23576.1
699.927
41.4299
116.549
660.289
23313.2
17847.8
59.6338
19486
692.552
229.552
675.791
559.083
30.6833
25758.2
19.1061
380.467
16.018
30276.6
21.2814
84.7713
216.262
23.4415
23187
135.572
148.035
1813.5
11.7956
668.969
22.1482
19.142
77.2528
26300.9
33237.2
653.427
39403.5
749.249
27432.3
60707
961.883
418.035
157.372
509.851
453.207
34.8237
1178.29
19.6959
27760.2
27329.3
116.962
27533.9
20422.2
226.029
506.162
22708
27695.9
22364.8
161.719
28238.7
28563.3
49.4664
15009.3
93.8304
445.932
92.9374
29865.8
399.623
13.9349
39.0055
119.532
271.011
1918.7
691.87
698.65
682.096
246.426
11.9504
10.4408
29944.2
1869.76
30297.3
453.567
146.808
1661.58
332.19
80.5612
29924.9
29935.1
161.945
1759.24
29451.4
89.4318
30557.2
806.553
117.471
244.212
8.87395
8687.26
711.587
645.446
31494.2
271.851
356.143
27852.9
32370.9
89.4741
21.4834
28303.7
391.698
558.781
1097.32
1350.45
25513.5
8.67981
18.3805
266.776
24269.6
39.303
1168.52
26294.9
1140.41
29956
83.4801
105.332
37.1145
42.89
463.528
190.987
162.867
227.458
251.204
6.53402
39.5152
27642.2
25578.4
81.2454
25760.2
126.754
58.8858
36359.7
6.98065
41.9012
22.2126
18.9017
180.307
99.4432
118.054
691.764
29193.7
188.895
50.6108
3223.96
571.188
2080.18
123.629
276.804
30206
27.0198
50.0493
724.614
29448.7
27063.6
31410.6
60.9684
18.0045
29943.2
42.4333
28576.6
4.34342
20.0319
30327.6
30295.6
30490.4
22.9539
485.719
86.2118
7.13104
98.1934
1315.24
234.677
41.0177
16867.9
626.955
9.90441
26313.4
31429.9
927.215
127.043
8.22147
33413.2
19226.3
77.1347
27615.4
7.94211
8286.04
27971.1
341.4
2901.76
218.331
599.639
114.251
27884.9
79.2549
10.5978
178.607
253.301
27447.1
155.809
126.071
19.626
68.8154
15.2465
1978.2
19341.9
35447.5
128.276
27036.2
11.298
499.597
1869.53
30393
22816
19.9984
775.201
29919.4
23246.2
25355.1
1244.96
622.291
3.91301
18235.3
370.96
25.297
124.839
320.085
298.016
19.3018
757.875
33826.8
172.889
34.9402
58483.5
8413
119.207
247.859
422.324
177.751
131.894
916.286
596.854
153.301
68.5879
805.008
20523.7
386.772
36658.5
27918.8
16070.4
2226.57
81.7252
118.847
187.638
30295
723.708
20.0271
21.9376
306.663
11.6286
60.74
20.0253
29608.6
27736.5
686.242
26825.6
20280.8
14.023
177.985
6.25157
8.66222
646.598
23455.5
70.2955
1224.02
20079.7
19.6046
25490
708.776
20.1512
34540.8
5.11166
172.827
1319.37
22872.7
19787.5
185.393
20460.2
206.677
15.8894
677.81
9.78644
28446.6
6.91505
15848.1
498.21
757.5
686.091
602.098
27009.4
34444.7
18.6452
18.0603
1919.25
26.4884
29976.5
536.378
10.4224
34.4315
58.2643
30521.4
15.5169
665.336
275.191
559.495
29437.8
30131.3
330.025
28261.3
112.434
2692.29
40.8958
436.345
162.988
30310
16017.6
66.7896
560.008
794.176
10.2829
37339.1
666.052
26909.9
167.964
8.44865
30786.7
29789.7
26069.7
712.133
27976.8
1275.58
680.157
2437.07
34180.4
446.044
29650.9
677.322
765.717
6134.26
257.991
2128.04
643.322
26179.2
647.782
85761
280.72
29981.5
498.965
13368.9
17.4882
94.5858
495.601
30375.9
661.115
429.103
320.179
129.163
73100.2
662.157
78.6972
687.396
682.195
625.575
367.93
472.046
71.1463
30506.4
7.49691
28.644
3079.51
155.525
71276.4
775.158
47860.7
248.355
6.76832
234.65
744.416
655.736
1101.14
26230
8.78292
28.2525
21.8817
1224.73
48743.2
30.2087
26825.9
165.675
56.2181
654.51
7636.73
1508.51
19.7181
56.9904
29025.4
10.2882
148.194
68.0382
44.0676
591.447
16.4974
10.2639
34.5909
3013.1
24.1684
696.618
782.066
25766.2
94.7988
126.099
20.61
277.678
28338.3
565.671
14356.9
86634.1
670.927
110.529
137.414
25234
388.733
23034.5
66.2848
62.1048
25925.5
888.089
570.969
723.644
42.9609
703.523
479.055
21.2457
323.883
207.34
67.2171
170.213
66.6571
32.4427
113.571
671.162
22962.5
93.4189
94.9722
2920.21
99.2644
717.142
6.6206
2271.98
47.0836
128.71
2361.33
27280
29926.1
86.2752
28128.3
141.715
1391.13
21259.7
26063
346.272
24860.9
2020.89
683.102
83103.8
83.9967
164.933
14.8378
20.9422
23393.6
667.472
830.322
486.907
16.4578
30755.2
222.311
20.0739
395.852
23436.1
23858.8
186.445
501.737
55.7093
24914.6
29479.6
122.597
143.038
264.454
44.7807
18530.2
212.668
1149.27
72.6844
646.378
28194.4
26302.2
30389
846.757
70.228
814.571
649.297
24.3597
100.803
25134.6
70.6636
98.6169
88.2187
110.101
447.203
616.946
684.998
186.707
31.0347
39113
24168.3
125.861
208.122
29519.4
93.9816
17627.4
100.622
25682.7
61.3259
679.073
6.35632
239.54
21.0364
88.9473
5.08171
30414.9
59.0177
110.545
18.924
684.956
268.282
664.776
28196.8
32.5548
783.987
224.211
25554.1
1096.27
15.8379
81.8299
664.131
34874.2
22276.1
44.3994
221.442
33050.9
1412.48
26340.7
36.4716
104.543
230.858
2258.4
11.639
806.349
5.07261
3.51873
36.3395
35166.5
23114.6
350.922
34621.8
213.768
59.8489
662.534
19682
21.3683
44.2623
100.259
27.929
29069.2
31869.1
183.138
129.565
11.0444
110.55
16.0219
30447.8
131.502
3195.73
36934.9
13.566
849.271
12694.7
77.9014
13803.5
9.18378
589.084
309.689
27399.5
126.922
68128
19358.6
154.825
26346.7
19.401
224.835
28442.4
639.624
28799.4
561.269
23531.1
27758.9
1074.28
6.8142
4.37059
680.386
517.633
93.3979
25886.4
676.858
386.609
2928.6
619.57
7.99202
370.727
6.42861
6.48481
25.7007
269.65
30146.7
230.734
19.3498
29128.8
27981.3
12.6097
119.025
666.998
118.976
29189
234.288
193.29
107.612
29238.3
964.469
18.4901
9706.37
20.6149
17008.2
15.9868
57.7557
10056.1
8.80972
163.35
44.9498
187.015
71979.6
1249.89
22.6691
17345.6
29009.7
20.9569
68.1999
12351
107.662
30390.6
689.056
28313.2
155.163
21303.2
356.681
604.8
191.238
2499.05
135.831
24116
36.0898
30129.1
148.839
15210.3
1094.65
583.11
41466
6.45084
1122.93
670.646
48739.1
1046.38
15.6488
240.721
135.49
7.442
673.482
21741.5
62.4733
9.66281
27206.3
199.811
29408.4
14.7939
28650.3
265.409
571.204
157.662
23.5412
628.169
32261.9
94.9469
23477.6
28758.4
55.3003
695.244
25462.1
95.351
30545.5
778.14
414.338
33.8936
17793.8
684.939
83.8708
166.261
684.587
21571.8
334.298
667.475
28618
556.717
21.3114
610.378
12461.8
47.6711
1233.09
18.9337
19552.7
131.839
170.848
396.389
6549.31
4.89026
38.6507
19588.5
393.51
27156.5
234.025
12.5582
15.9957
29893
49.0993
28877.1
94.6227
99.0667
32.8527
662.023
45.9169
22649
84080.8
237.256
521.701
268.715
584.462
544.351
21.2949
70.0585
30299.9
2952.35
33.1207
27055.7
18.4537
30729.7
676.242
855.509
28858.1
29587.4
27185.2
70960.4
8.88092
32048.1
3679.25
19.2514
6.83608
557.002
81.3256
19434.7
27.469
1007.8
454.45
29411.3
528.286
30417.5
57.6878
6.63033
1126.11
85.0111
684.425
28691
371.01
733.81
205.654
7.33329
25570.2
25284
1400.35
117.625
27.9077
13001.2
6.94589
561.275
197.081
274.072
13.2399
1184.56
6.24465
787.705
404.08
34357.4
59.0644
3795.64
30168.3
24666
28829
539.092
20754.2
78.3151
28511.1
11.0072
670.282
20.5385
161.716
687.261
63643.7
19396.9
23260.2
4.08814
257.1
30536
753.455
703.776
83.6314
221.007
29216.5
747.188
8.01595
955.778
446.098
28885.3
573.748
28845.9
13102.3
20.7739
22.3367
158.869
27588.9
15.2126
680.43
80.3353
80.577
30155.5
9.19961
106.535
17.4373
515.664
35.4382
24313.7
31.213
80.3786
200.894
68.2338
32909.5
77.4426
55.2313
26398.9
19.3804
27785.6
181.733
663.261
35.2118
227.195
717.832
222.968
29375.6
674.398
81.5409
86.1686
73.9635
58.0346
23210
8.98875
41.2027
27754.4
23188.3
29.695
30391.1
151.194
194.01
28953.7
136.82
32545.5
50.0824
218.475
581.414
460.791
32.3849
15433.5
277.426
659.654
2602.14
824.789
19.4877
848.001
682.023
7.10366
69.3871
18.4701
37.0861
26910
540.384
82.1666
34.9092
159.146
681.999
23647.1
33178.8
5.87468
27460.2
371.156
9.59521
97.7984
30347
18027.3
58.7373
21636.5
363.803
134.339
169.495
18.9696
83.5573
38.1289
666.757
93.2515
18.1505
35.5785
28804.5
21479.6
34.0984
19.6234
2014.55
323.498
3079.02
30787.1
539.396
177.985
81.7282
30744
27303
23370.2
69.7439
17211.8
121.072
673.211
190.692
319.079
25502.3
14.0258
29519.8
59.6927
35.3264
6.31368
1507.15
7882.67
542.259
29821.7
5.36255
720.331
4167.03
2967.19
154.718
1037.37
26.4853
80.4248
27336.3
34.2727
701.118
419.926
5692.61
675.841
686.549
629.186
23895.1
29902.6
194.761
283.089
126.489
75.0869
615.927
1734.94
95.2354
38.7365
26.4417
668.41
48.172
219.217
4.85245
8.00498
30082.7
10.1814
227.527
26771.1
12.7612
116.4
3574.91
21896.5
244.47
27.6698
28.0382
121.725
158.128
1624.12
9597.89
995.966
494.953
29929.9
32.469
25.6426
14.4302
19.8103
40158.5
68.8513
153.17
68.8402
30532.8
23664.1
694.095
692.988
30010.5
69391.5
19.6621
8.734
169.473
903.298
6.93238
19376.3
725.498
11.1846
27916.1
229.387
1033.79
30066.1
30610.6
8.15859
4814.84
568.38
18.5136
103.63
82.3181
134.142
22.3326
7098.52
18628.2
504.807
26996.3
137.973
795.19
18546.1
19.3854
657.832
370.568
21450.2
23487.3
215.935
3844.11
350.946
771.54
398.855
722.332
717.36
656.918
66.7869
23840.4
333.579
113.448
18.0187
23150.1
24525.1
15.5442
9.84168
25122.7
3005.16
10.9805
26577.8
66.9412
20033.3
64.1003
250.614
172.22
158.602
56.3531
11.3991
83173
170.237
28237.5
92.9214
365.04
28303.9
102.886
19.4134
500.233
866.24
27378.8
753.472
27971.8
10.1558
99.058
228.367
175.295
28.1735
62.7735
27.6474
10283.3
40.8879
5.18971
104.48
880.534
67.9933
15651.6
27485.7
284.998
29268.7
9439.05
30535.8
355.725
666.732
87.9847
21898.1
74.5296
3.56577
48.3582
172.235
19.9597
6.44262
170.739
80.6527
372.613
348.674
30305.2
562.502
6.98814
161.729
17088.2
245.407
815.961
65830.2
685.489
254.726
21.1161
845.222
667.001
22.9499
32.8145
22.7789
408.325
28358.6
345.974
20124.8
3902.08
536.451
67.6645
67.223
6.06562
11.6254
78.0408
29391.7
10.0507
666.582
4.25741
165.294
28887.4
6170.63
28343.3
265.893
58.2411
565.271
16507.9
186.566
26968.9
652.565
40.7761
17.6438
29.3974
670.896
341.344
133.357
660.701
764.155
68.1984
728.496
1040.04
23013.5
82.4518
16.3595
181.133
54.2465
22.2719
1532.14
26.6625
22.6613
52.4192
83697.4
662.065
323.214
293.643
23011.1
27491.5
28748.6
88.5108
822.664
477.854
25481.6
55.9195
123.559
21.1027
237.093
6.71632
17.5722
306.633
11.0447
587.529
8.57083
28594.4
2479.06
339.483
106.866
77.5228
260.204
174.78
30196.1
88.3819
1869.67
90.1687
29472.5
29677.2
15.5738
6.7514
49.9857
7.0621
18.798
459.11
422.523
27027.3
762.927
29865.9
814.636
127.9
22.9609
354.393
156.075
63701.7
29322
578.721
1229.54
508.433
669.741
22881.8
32.97
46.7684
241.291
14.366
65316.9
139.057
30239.2
21.0673
16.4708
9.22792
171.651
87.3734
444.301
736.032
23103.6
29378
7.10921
6.91464
115.458
241.457
23.2482
2632.54
653.567
1738.29
238.122
1434.86
28656.5
1966.27
69.0938
14.1299
418.889
688.647
1241.06
58.8383
363.732
2117.48
178.084
3276.58
376.295
7.35976
226.199
24497.4
15350.3
23874.7
9.8496
28340.5
17660.3
666.857
200.781
15.774
668.19
8.02105
28553.1
86.5094
15.3607
50.6754
356.06
104.342
27914.4
168.34
1221.73
29849.2
300.4
226.474
572.025
244.778
300.368
363.2
34.4658
105.101
21.9066
694.749
35.5525
8.65518
688.163
34.3116
24754.4
10.197
220.453
44.985
646.994
253.152
33.986
7.44732
5.01335
59.9652
25746.6
666.044
34.1807
31855.2
34.2434
164.302
48.9657
558.817
15539.2
706.163
30570.9
31935.4
60.8173
3.92607
72203
29.9651
253.297
779.391
29379.9
93.9368
671.788
309.158
195.251
121.058
663.713
438.712
30784.7
22156.9
63.0558
16732.8
19139.1
9.68993
526.586
19861.2
28658.4
29469.2
686.001
46.7382
32311
398.364
686.364
61.2885
17169.5
27143.2
34.6053
22.4131
46.1254
57.4422
18860.2
51.3801
79.6296
173.845
29665.8
1092.58
81.1332
29758.8
30554.9
29886
31650.7
6.8582
359.149
24334.2
26486.1
148.115
489.765
41.0522
64.0436
19783.6
828.778
1140.36
23736.6
40.493
30219.9
30662.1
29946.6
84655.5
18.9585
98.9729
327.191
156.465
6824.12
4887.86
9.88016
5.30464
716.833
111.89
106.651
999.434
83.7331
29691.7
191.505
122.706
205.35
7.68058
651.516
28413.6
33.0874
22.7117
33503
30023.5
543.085
39.186
106.777
665.094
130.916
19.8779
314.747
686.188
28182.7
61442
30255.4
255.745
683.625
664.247
35926.9
258.018
565.675
110.19
21600.4
191.48
28849.4
22008.3
819.447
518.93
33.9806
4.06309
25419.6
202.71
123.361
82180.7
57.0598
263.11
680.039
30404.8
77.9719
175.588
22233.3
164.116
2507.99
66.1967
23782.9
398.422
30137.4
279.128
213.639
640.897
187.918
18344.7
693.537
46.8844
660.312
781.96
353.384
29009.3
791.834
18231.9
163.743
724.306
110.896
137.201
1702.07
10.7053
680.637
33351.5
17871.8
1414.14
29402
25.0972
1197.89
30.8036
8055.06
59.4335
742.618
29734.8
29670.1
27.2852
557.148
29475
9.54018
262.736
131.831
176.411
387.825
6.67701
48.851
207.284
25442
584.162
840.225
28919
740.974
14.3668
578.998
45.0823
327.057
51448.3
528.19
30191.7
33540.7
147.56
69.8591
86.6042
29974.9
19.35
49.8144
396.212
206.237
29542.6
15.7785
353.934
675.016
30268.4
29361.2
571.307
28152.8
16.9941
39.1777
29624.3
20333.3
251.105
35192.4
7.40921
7.9462
19.1357
2062.16
425.757
24.9118
20705.7
68.9015
34977.7
17.4085
21.3443
79.4307
8.14475
69951.4
68352
40.8854
22182.8
106.725
177.6
29575.6
138.069
1141.25
147.507
304.115
33.5701
139.536
8.78181
23291.6
58.6672
13.4689
654.253
81.374
32.7718
694.333
11.3976
29019.8
43.4788
35232.1
500.16
95.22
28604.7
29337.4
25184.1
172.792
25849.7
24448.9
195.657
371.541
83385.4
28687.1
7.3153
72.5496
25723.4
26464.6
139.548
29573.9
26768.8
30329.4
29278.8
11.6113
4.86478
750.429
166.856
1253.4
1491.92
25350.7
663.489
26504
11.3088
8.37112
194.753
21125.8
28049
359.517
61.8116
27269.6
79.4107
687.076
661.304
26.0667
38099.6
126.057
29044.1
1763.4
551.141
12921.3
550.344
778.118
106.729
78822.5
181.081
9732.51
99.7667
20.1965
630.118
30332.4
30158.9
10.0813
168.463
18689.7
215.641
543.237
28902.3
14532.3
13964.4
524.674
7.42119
24229.6
5224.67
29127.3
110.417
30468.2
16517.3
32.5989
4.29672
74.0116
1064.33
29537.4
361.837
16573.4
565.536
178.013
348.502
1966.8
143.378
711.157
114.524
389.142
570.05
25815.9
823.354
456.213
28800.1
56.1858
206.185
22319.9
664.626
420.604
30.0459
106.221
256.559
19.9515
18.8327
244.094
31171.3
926.515
14.8843
369.97
33.8879
383.087
147.305
14754.8
2852.94
174.848
16.7999
7.53791
30906.1
572.576
81.6095
107.255
22546.2
33.4932
28960.2
29381.6
6.74528
28401.6
30261.9
16.8046
49.7405
28017.3
345.733
46.0404
7.0708
9.30198
4.62172
4.09294
4.32523
6.87266
8.06789
4.41757
6.52523
168.575
1271.98
37.9767
14.9578
19640.6
17.4735
83411
45.4613
13.4094
128.41
8.33837
24954.9
20.2004
354.556
20.6954
243.239
489.304
11.2583
28497.9
133.891
144.308
675.652
508.952
3203.98
141.942
169.683
7.73292
704.105
112.561
24413.1
536.955
1095.51
29803
45.6814
61.1057
37.9122
9.40803
17.4344
41.2288
297.039
24.129
15.594
28832.2
673.076
47650.8
175.634
15170.8
30031
66.8455
40722.2
743.866
184.307
7.9827
1614.19
16.7321
24892
29747.1
68.0088
116.988
86.1467
27.8815
30371.1
20145.3
672.405
144.888
21277.2
93.4819
14.413
25596.7
37.1564
799.476
247.185
707.208
734.264
25143.6
86.65
528.508
302.414
100.211
14725.4
503.053
28804.5
31160.9
25728.4
27595.6
192.739
7.88282
139.182
28659.2
675.094
691.844
60.1822
134.592
3208.48
7.02872
9.63316
135.251
19414
2138.55
244.776
22559.3
78372.5
122.87
1521.81
28167.5
29962.3
22876.9
8.90538
30403.1
607.643
658.799
19695.9
29907.3
33.4145
30.2688
82.8216
5.72106
134.54
245.015
25.4335
23.2105
863.474
26581.8
777.139
828.851
1919.14
37.0756
612.918
28.1349
388.706
29509.9
560.722
768.306
154.321
681.423
344.612
417.109
665.752
24981
24.1071
176.145
35.205
16.3579
1397.97
1414
25494.9
21101.6
76484.6
41.0023
29027.9
58.306
468.821
54.3074
20.1202
88.2345
76.1333
14111
384.842
16163.7
297.915
221.497
211.635
631.622
29305.3
683.027
362.599
17.5823
740.282
4349.67
724.277
86.0213
697.754
386.08
190.711
653.627
29714.9
293.702
59.8078
29401.4
29967.2
158.058
181.119
23376
1461.61
1611.79
29157.2
23308.1
11523.5
9.61763
366.98
7.02891
27187.8
15.6878
478.249
481.131
604.467
352.542
7530.5
159.367
564.93
29549.3
359.485
22888.2
247.395
22716
22346.7
303.605
64.4256
54.8485
796.929
12.7127
16.9287
65.6895
67.0621
562.561
1663.15
18.9628
55.3654
625.167
219.609
7.27419
653.426
248.358
111.668
16863.5
28211.5
241.869
817.203
12929.1
29505.7
582.047
17814.5
178.181
210.635
22990.2
29860.1
53441.7
56.6704
1624.77
26559.7
546.832
20472.4
17117.5
406.208
17.5491
21.8011
47.0749
729.53
107.411
6.65748
16.6911
30355.1
30103.2
154.303
28671.3
387.791
43.4796
2520.91
654.136
306.198
29781.3
227.579
601.443
29.1061
60.4283
35905
364.551
27671.3
29296.2
141.963
17.9065
14.2112
112.561
23858.3
30.9207
111.556
75059.3
4.6653
26472.5
45.0312
25353.5
394.258
4201.5
1456.24
99.8384
29.2539
192.973
580.324
29578.1
661.498
28.7394
806.283
228.636
3526.34
63.5714
405.561
24.5452
23.6909
29819.1
25099.2
198.176
112.024
131.071
133.212
255.621
427.417
20563.8
19.19
530.076
18204.7
205.197
34037.8
173.296
177.143
1171.72
30049.2
473.528
32.5694
26.6222
5.99664
175.593
66.8402
139.357
229.24
28.3627
428.491
16.9355
26.7991
273.776
705.589
29.1499
81.9332
695.716
8.33476
18.9805
181.892
62.7139
21.0176
29361.6
81.7709
40.9971
30104.9
439.192
677.759
28724.2
30303
176.472
661.818
10273.9
30025.2
651.536
29381.8
40896.9
220.303
30838.8
4.63224
173.276
8.24625
12.9828
112.905
3390.08
696.681
177.825
225.923
30297.1
196.93
10.5314
68.2951
179.493
51.2892
7.63874
172.282
52.8462
19.0594
952.024
11.7143
28103.2
28464.6
1389.56
14.7871
25551.9
25390.5
17142.2
29193.4
120.599
329.681
821.022
2481.86
17.7134
721.331
611.322
7.9985
74.5608
59.5715
13.4721
83.0843
16.5093
137.667
29560.3
62.3421
108.019
34.3945
18850.4
535.006
136.826
31181.1
85.7874
105.23
20.144
46.0617
176.801
2936.96
92.5482
29782.4
32794.9
29591.8
14.9851
6638.87
6.43203
7.41245
423.787
977.855
58.925
275.172
496.763
104.866
28690.6
13.4793
604.616
15.9225
33896.1
33.3928
509.725
10.1328
3550.56
106.416
46.8078
29809.7
32086.3
7.88505
29710.3
18.9446
43.409
27.2776
260.486
368.44
55.177
69.2444
29439.5
34.3823
574.161
2555.53
323.235
20.4782
70.8333
2239.2
109.608
28750.3
152.956
675.241
27563.6
27.6638
275.958
118.39
447.813
27500.7
27518.9
13.7982
16872.4
6.93683
42.6027
29432.6
330.327
513.828
932.356
681.079
165.998
482.188
25104.5
5453.48
19.2131
272.744
123.676
144.768
5873.69
44.5275
59969.8
687.018
671.564
339.549
38.3277
7.89929
93.2632
8.27944
675.765
23291.3
88.6133
234.065
30874.1
18.1827
23105.9
30195.7
27123.6
224.012
176.241
149.937
691.405
19378.3
953.013
19.9068
67.2602
248.265
10944.4
89.9532
139.174
43.9268
29839.2
23936.5
557.445
178.451
99.29
15.7405
10.3372
3831.28
17.4024
8.11787
24.2878
170.755
60.2455
438.909
3454.76
583.147
116.339
196.069
485.514
8.80172
202
1598.55
712.943
52.2103
17.8475
2399.25
1169.93
16.2483
1117.4
35362.3
23023.7
357.151
18847.5
29415.5
146.994
6.70213
23508.8
302.042
17.7213
7.29629
14.2186
27572.9
22445.7
23669.3
243.284
28.9271
21.0302
78.2589
69.1326
8.92465
925.053
1011.14
14946.4
28019.5
646.592
22.1296
4.64559
24894.7
83.2891
152.295
7.57079
14.1411
317.125
14323.2
16917.5
242.892
299.546
6281.86
683.784
186.376
29456
7.10392
296.13
23700.2
30318.3
926.734
23626
641.44
22131.9
10.9528
16.6669
20.6687
65.4319
50.2653
29908.2
117.304
4.93361
46.3015
558.503
49.985
10.0162
683.402
127.414
241.841
38.2385
27551.4
368.301
21.5553
45.0142
676.101
6.89897
27865.6
16.742
290.863
10.0503
195.767
4150.45
4.83788
26852.9
25158.9
30090.2
8.61302
43.3874
34.3415
689.68
223.256
88.3738
192.82
30074.9
8.9054
677.739
238.111
610.061
116.012
76.1776
21917.5
98.8819
27.1334
15.57
202.797
36.8231
118.573
34.8796
7.37583
115.077
138.792
670.9
86.8898
30193.7
664.907
21.7865
16.7189
77.1381
20622.1
15032.4
28658.7
732.05
10919
63.7112
149.906
20249.4
406.04
29525.3
711.91
32.8559
139.302
79.601
28328.1
110.655
99.2464
30331.3
29811
684.75
29568.4
16.3617
28659.9
662.459
10.0353
323.988
1302.43
78.9869
10739.6
31975.2
50.6306
1319.66
205.964
30156.8
194.07
29.052
6288.22
4599.79
16978.2
25.4029
30360.2
15.8822
418.189
34.9043
8.4712
27.913
30.1727
1141.1
135.728
600.951
30489.2
381.843
27006.3
15328.4
14119.7
724.3
8447.87
904.937
330.68
6.83946
19.2589
56.9881
23878.7
83.2179
12.0186
10280.5
30220.4
753.868
134.464
976.027
63.043
29.9693
96.5946
16.5298
204.008
47.6568
30165.6
623.854
239.594
195.979
11.1425
70.0566
6.54854
367.814
28157.5
4.92902
46.64
682.422
24836
90.1505
4.38436
15.3135
438.11
710.89
202.77
359.75
94.162
163.181
16.6624
39.0234
1986.28
656.04
146.227
731.345
189.671
29071
701.133
71.4445
824.469
5805.77
29602.7
639.946
181.533
223.102
12.5979
48.6101
70558
32.7836
115.133
26549.3
111.229
22.31
51.1099
13658.9
28950.7
30563.6
28714.7
49464.6
35.802
19707.8
156.845
196.058
1380.56
14.973
1337.08
4145.62
877.54
27629.2
573.808
13.8837
1206.5
84.3441
298.797
123.138
29377.1
170.609
144.853
33.0826
496.959
598.443
193.689
28172.5
476.528
18494.6
200.27
7.6966
35876
18.7222
27967.7
29.084
51.5678
19.7771
69.1665
221.927
11.9035
236.631
21.831
683.075
18.0126
17.3072
117.031
143.724
5.84062
28223.8
60.1645
119.87
27408.6
13.0191
40.6193
50.2191
190.84
24041
1102.67
210.82
676.3
29839.5
3913.81
25.0745
141.498
677.745
951.47
10.5397
49.8738
20.9703
322.284
73.1479
2067.61
18.9669
41.2887
69.857
47.0982
24910.7
158.841
16375.5
212.136
29543.8
7.96028
681.983
17597.1
672.209
7.73326
24062.1
27276.4
39.964
12906.8
684.624
663.307
29785.9
144.16
2765.97
14.318
353.122
19.8053
4.75537
33.502
780.535
105.248
50.8243
29762.2
27860.2
409.325
249.652
16331.3
72.8134
83384.4
15.7773
314.858
292.165
16.1431
30216.7
23.3458
3296.14
42.3072
79.5817
308.6
748.358
30.3451
132.375
14.0803
799.811
7.30463
1113.93
30122
29619.1
32.5761
30476.8
54.5399
887.671
129.682
4.41236
74.7525
1011.69
133.257
80.2277
45.8938
95.2958
25633.2
29424.8
369.23
15.065
28318.4
90.5787
651.306
10.524
271.38
133.585
10.5413
14.6697
9.64126
30423.1
3004.17
345.011
179.501
38298.6
21.5097
771.235
254.506
60.0643
796.4
58613.4
62.2771
4.71016
25296.1
1106.53
79315.9
16.8633
22674.5
21514.3
707.687
175.593
681.048
25259.7
31.0242
1236.51
30080.1
39.9015
30397.8
29535.6
40.3313
29973.1
42.5432
27111.7
195.412
324.753
44.6343
63.7659
695.289
7079.82
21925.4
597.914
20.691
30522.4
73.0061
23.5191
175.304
35.9302
30212.2
48.5988
13765.7
24982.4
178.034
227.457
148.928
957.476
6.31224
28753.8
3193.2
69.7909
28668
803.621
796.356
10701.1
49.2353
107.571
756.679
23268.8
28223
152.567
29919
96.6102
241.285
1169.11
18336
162.272
244.72
775.889
681.167
107.579
1518.5
56.9228
24.7373
272.213
834.178
28520.1
24.6547
29998.1
121.6
29.4056
215.013
8.16222
737.037
60.124
181.661
3419.07
47.1401
107.612
21119
24.3619
32.1527
18922.5
107.356
109.374
566.336
717.453
30217.6
38837.8
142.628
12840.1
1058.29
331.83
15.0006
195.981
669.852
816.839
441.198
1874.95
14.6471
26.207
5.99779
4965.82
7.70702
17425.7
55.1416
211.845
16.9719
25430.2
852.291
48.9223
35.1975
32.8974
58.7415
702.642
8.37815
22004.5
63.1676
346.107
186.059
17.7161
10763.6
189.392
29866.9
22827.2
381.284
14.315
15.9803
477.986
11.2389
105.307
26957.1
666.539
150.215
909.01
28908.8
15.0779
7.7884
30494.3
111.472
14.8548
1706.46
49.7326
229.643
11.0644
668.814
24520.3
696.537
29605.6
23.2235
29915.6
411.925
691.676
27627.2
336.021
30116.1
1282.52
1413.11
22.0701
14.5752
76.776
53.973
858.276
4992.51
35471.6
28829.1
378.288
6519.58
7.53037
24314.1
102.431
191.865
355.901
993.886
744.1
631.552
138.833
245.316
104.59
8.99184
16.0401
109.322
47.3412
21.9413
657.552
1495.12
460.976
598.381
20298.2
133.49
273.892
114.046
532.875
27551
2878.46
18.6669
14.1139
672.198
379.415
44.9506
28323.4
666.955
198.386
236.525
157.733
30827.5
29495.4
45.6337
187.491
227.407
93.8514
330.64
21.9547
15.3448
30145.6
12.1173
372.458
16647
344.944
1155.06
29015.7
87.7425
23999.2
929.513
40.0294
13681.5
1646.3
261.404
29344.2
28.3814
29879.8
29926.8
26985.3
17.9729
33115.4
658.148
424.199
222.942
46.9774
23.0794
62605.8
41000
320.036
21.3996
64.8138
164.488
29800.6
1935.07
488.438
30566.1
21378.6
13.6839
887.093
29597.2
17987.4
125.587
29941.7
840.55
217.41
61.9344
28305.5
357.188
343.327
30419
76.3188
566.991
29623.1
3623.18
321.165
30325.8
12.7191
28019.4
9.53354
940.803
995.753
755.972
186.779
27.4433
148.049
143.641
464.929
144.036
16098
515.458
173.916
23201.5
70.1927
549.011
22.6079
675.722
1559.58
45.1031
11.0315
809.176
841.547
21.659
343.97
74.5701
381.252
493.728
5.15758
24.8188
18.3541
30457.5
623.474
972.874
192.614
14758.4
8886.56
32088
376.366
742.181
221.953
269.433
814.466
626.377
76.4112
43.3294
22070.3
11686.3
77.6779
1186.07
27.8963
29595.1
13592.4
7.05408
61.0632
1878.6
799.559
31617.3
262.696
139.514
79.5483
81.6272
32.8807
10594.7
26.1681
760.849
20114.8
213.56
616.379
17417.4
678.096
64.5372
773.254
337.244
25754.3
35711.4
108.558
20426.7
36577.8
60132.5
11654.8
25301.5
50.2806
13505.6
66.9729
503.478
6.44711
62.5059
1061.6
638.822
286.05
98.4937
7721
147.087
510.734
13.314
18446.9
7414.27
73.0517
30035.5
45.096
27700.5
38954.1
61594.2
20.7635
896.546
3656.3
40.6328
68.3053
243.15
29705.9
702.028
28632.4
24955.5
5.70219
8.52142
4.29641
6.20562
9.75095
7.29659
4.07214
4.33451
7.34367
183.103
16.6235
12660.7
113.216
20.1159
10929.3
127.871
546.989
191.234
885.814
1349.57
16394.3
324.755
687.404
11.3042
974.113
17.6788
659.049
760.387
848.521
820.518
50.2751
846.959
24068.4
446.801
704.404
639.336
1498.47
70.8803
1186.21
298.848
4.97358
29.2965
13082.2
30455.5
10.7712
135.852
14.586
21.7099
20.0888
17.7809
15.0063
17839.2
23983.3
15014.7
23108.3
674.738
15804.8
109.856
11.0957
146.259
449.879
342.898
5.05813
16.6359
439.293
16128
7.61067
116.095
5658.31
28.811
986.464
66.2341
217.555
11.8756
1095.97
192.84
28.0315
27910.9
49.4334
674.38
805.336
14.2361
19.8745
216.273
19122
30358.2
28666.5
184.846
696.362
579.5
113.939
173.376
27.7618
673.682
36281.4
29636.8
161.906
105.888
23973.6
18371.5
6.86769
30511
22093.9
123.063
571.042
29897.3
23850.5
661.156
212.544
760.688
21302.5
1264.79
276.672
682.6
670.522
413.707
28677.8
2133.18
16.7025
28358.7
149.928
648.83
41.9675
2486.17
63.9186
4.35051
332.056
637.048
855.764
142.479
29747.4
14.5603
25519.8
25682.3
6.86649
1563.52
24117.7
20232.8
27775.8
1145.6
22.724
169.183
162.046
16.9001
118.65
721.184
1873.37
727.771
29098.4
13570.7
288.29
72.1709
346.049
22921.9
682.182
16.6228
56.8955
220.879
1550.13
21876.5
160.723
359.989
327.808
659.574
9991.91
135.189
8.18829
13.2468
7.58982
29446.2
25731
401.697
1566
26404.1
1076.39
26823
200.133
15745.3
153.458
28295.7
1085.72
547.898
35650.6
9233.5
30903.4
71.0728
352.606
144.433
34.0642
27.5673
173.213
373.551
65.1362
268.865
659.469
714.028
346.828
3462.62
22890.9
30204.5
677.929
29682.5
30777.5
30093.9
128.238
18.1302
2360.88
27475
166.476
214.405
24.8179
151.368
54.1883
60.5007
173.099
21588.3
26831.4
14912.3
1672.22
314.722
74.0331
5.66809
29938.3
9564.9
32.3746
47.3599
21925.2
105.997
2708.19
25792.2
23.4401
163.171
50.9381
69.6719
335.591
30.0579
1343.56
26.696
30082.6
311.376
556.342
30120.3
713.473
21923.4
30797.8
31158.2
715.031
29847.7
74.7143
6579.72
26831.3
22.1957
688.214
25759.5
7726.77
9570.17
683.508
5649.77
68.4695
844.058
59.5031
85.373
76.2405
8.24001
448.821
139.682
19.9776
153.63
991.941
176.769
1469.76
1041.97
161.672
21.8033
19.6339
17.1157
64.0418
11.1166
12.385
214.451
26.6094
690.542
2663.72
270.351
631.753
8396.51
118.681
250.03
30148.1
29960.5
896.158
19.6843
410.278
715.22
14445.9
21.9674
464.615
23.5738
673.237
18.9654
733.176
783.207
36.9216
776.286
601.233
146.661
7.3188
32712.7
18059.5
63.4423
944.951
328.342
813.701
29626.6
307.094
24014.3
668.207
1101.41
104.51
115.738
26.3056
37172.3
848.488
22200.2
527.196
230.896
26611.8
684.68
17.2611
30067.8
193.961
26009.9
51.6356
49.9649
714.372
119.498
26972.2
81.5244
20.5466
12229.1
1344.34
605.307
8518.7
893.566
736.232
70.7171
382.493
127.744
147.592
226.649
18483.4
16624.6
41520.2
29568.6
18.329
32.4399
119.057
4018.08
9.13219
9135.6
5.19111
50071.7
644.969
23.4655
17.1998
337.433
38.9967
1267.76
22090
6715.66
282.203
14668.9
29098.9
113.446
722.278
691.011
109.726
8.81779
627.62
20.6443
193.649
27529.8
25606.2
692.568
7289.19
67402.5
659.078
166.166
6.06238
210.54
3254.99
14196.6
63.5255
201.882
118.758
295.289
741.741
29751.9
115.12
26292.9
758.011
241.076
568.913
46.0208
102.944
2447.67
59.5598
936.743
26172.9
656.057
257.887
743.63
17827.1
62.8949
55.523
472.535
400.362
59.4692
953.271
1185.02
25.4873
24983.8
386.565
66474.7
32.592
27925.6
3438.81
672.821
558.534
168.897
25893.2
751.611
23956.8
6.92282
305.805
584.552
206.838
19.5368
664.648
227.237
77.693
27040
24003.4
172.123
16.7757
177.949
33.802
263.04
25359.6
16.088
657.76
25656.3
665.505
891.446
11999.9
25981.5
60.598
29739.9
472.969
30108.6
882.433
20.0652
38.1469
693.38
22679
206.962
692.799
682.965
951.033
648.354
138.656
15343.6
28829.7
254.086
66.8198
176.052
228.428
14616.1
2511.87
24066.8
107.114
34.0126
753.83
11017.9
1919.19
59.4313
83069.2
25.3181
748.899
30530.5
42.9945
4623.07
10301.6
416.941
5.91895
9.75209
8.58009
3.99558
7.16761
8.8371
6.35164
5.63472
4.21426
7.1452
4.16325
5.64637
7.25677
4.04669
2840.1
662.343
815.13
193.682
343.637
47.5881
43.0721
7.74875
26079.7
84.7425
68985.8
40655.8
1767.07
24249.7
237.259
42.6818
667.859
2982.37
589.412
20385.4
12965.3
15.5571
39384.2
651.448
66.4513
18225.4
665.684
23488.5
31.5094
11289.1