/*--------------------------------*- C++ -*----------------------------------*\
  =========                 |
  \\      /  F ield         | OpenFOAM: The Open Source CFD Toolbox
   \\    /   O peration     | Website:  https://openfoam.org
    \\  /    A nd           | Version:  8
     \\/     M anipulation  |
\*---------------------------------------------------------------------------*/
FoamFile
{
    version     2.0;
    format      ascii;
    class       volScalarField;
    location    "0.0001";
    object      rho;
}
// * * * * * * * * * * * * * * * * * * * * * * * * * * * * * * * * * * * * * //

dimensions      [1 -3 0 0 0 0 0];

internalField   nonuniform List<scalar> 
23640
(
4.22505e-05
0.000248913
6.03166e-06
0.0244634
0.000218244
0.000371559
0.000122084
0.00016476
0.000518686
0.000829634
0.0225067
0.00021958
0.000100613
0.00020672
0.000542129
0.000323883
2.26943e-05
0.0150813
0.0195634
0.000522091
0.0216654
5.45603e-06
0.0215371
0.0209378
0.000264981
0.00016943
0.00279051
0.000654746
3.0042e-05
0.00016535
8.47081e-05
0.0530393
0.0216875
0.00031373
0.00062754
0.000562497
2.39735e-05
5.26751e-05
1.32582e-05
0.0229419
0.000307194
0.000513217
0.000234545
1.16149e-05
0.024757
0.00367913
3.95525e-05
0.000347926
0.000817567
0.000139531
0.0453661
0.0160102
0.000572086
7.21045e-05
0.0244628
0.000581158
0.000521109
0.000267953
0.000142118
0.0254855
8.07149e-05
0.0038058
0.0238418
0.016686
0.000184247
0.0165773
0.000264052
0.000257619
0.012283
0.000224214
0.0235519
0.000307295
0.019404
4.10356e-05
0.000303512
0.0508934
0.000583374
9.75838e-05
0.0197109
0.023694
0.00428313
0.00120881
0.000269315
0.000280004
0.000175211
0.000743439
0.0158988
0.0223331
0.019331
0.00056589
0.000123908
0.000273673
0.000665952
0.0195839
0.0159094
0.000154246
0.0170373
0.000568887
0.000327238
0.000656562
0.000957296
7.22953e-05
0.0207574
5.48792e-05
0.000731181
4.8638e-05
0.0244212
5.7835e-05
0.000231919
0.000347581
7.16131e-05
0.0194688
0.000335482
0.000350712
0.00220913
3.42896e-05
0.00054096
6.77274e-05
3.86423e-05
0.000176895
0.0210877
0.0268875
0.000534293
0.031874
0.00130898
0.0221327
0.0490688
0.00148936
0.000377421
0.000364325
0.000961536
0.000851013
0.000103725
0.00188094
5.65768e-05
0.0222929
0.02227
0.000264266
0.0224197
0.0176767
0.000343492
0.000508239
0.0191248
0.0225248
0.0187194
0.000328159
0.0228842
0.0230301
0.000141131
0.0132566
0.000125999
0.000381299
0.000221979
0.0240533
0.000792502
4.26457e-05
0.000123334
0.000305323
0.000240196
0.00277802
0.000554341
0.000591627
0.000549337
0.000224095
3.35755e-05
3.0267e-05
0.0240717
0.00263054
0.0244493
0.000851436
0.000332356
0.00204256
0.000293221
0.000223289
0.0240945
0.0240994
0.00037381
0.00227322
0.023729
0.000192662
0.0247372
0.000677196
0.000264408
0.000538473
2.01371e-05
0.00904639
0.00126054
0.000776707
0.0257587
0.000586476
0.000578162
0.0226315
0.0262063
0.000215653
4.99205e-05
0.022766
0.00074326
0.000489593
0.000978406
0.0020582
0.0210791
1.02219e-05
5.4576e-05
0.000509522
0.0202538
0.000117362
0.00102441
0.021578
0.00156233
0.0240969
0.000208671
0.000245998
7.54878e-05
0.000124362
0.000391338
0.000376756
0.000362765
0.000505698
0.000251245
9.27511e-06
8.15371e-05
0.0224888
0.0211245
0.000224202
0.0209312
0.000318027
0.000172644
0.0294101
9.53572e-06
0.000124836
4.50731e-05
4.64461e-05
0.000420838
0.000235582
0.000302141
0.00119976
0.0234833
0.000376538
0.000143551
0.00402167
0.000989156
0.00227876
0.000309896
0.000501899
0.0243818
6.41864e-05
7.77274e-05
0.000603284
0.0237261
0.0218282
0.0255636
0.000176955
3.94084e-05
0.0241101
0.000122841
0.0229993
4.31754e-06
4.99886e-05
0.0245432
0.0245047
0.0246949
6.93078e-05
0.000883769
0.000234709
1.51581e-05
0.000233491
0.00204815
0.000300077
0.000120838
0.0152085
0.000770561
2.27809e-05
0.0210126
0.0256668
0.00142213
0.000320805
1.87663e-05
0.0270304
0.0168639
0.000215735
0.0222588
1.32385e-05
0.00871782
0.0227087
0.000369886
0.00381099
0.000234188
0.000499644
0.000269824
0.0226488
0.000190319
2.44549e-05
0.000366107
0.000242317
0.0223611
0.000257337
0.000309284
4.26085e-05
0.000194326
2.94963e-05
0.00274427
0.0169376
0.0286707
0.000294235
0.0220727
2.92042e-05
0.000922699
0.00267875
0.0245855
0.0191692
5.2646e-05
0.00126819
0.0240922
0.0195707
0.0209756
0.00196077
0.000800148
3.63087e-06
0.0161793
0.000347009
4.23889e-05
0.000316357
0.000652875
0.000629528
5.5532e-05
0.00118747
0.0278552
0.000287415
5.27733e-05
0.0472723
0.00880986
0.00017567
0.000544782
0.000833538
0.000352075
0.000298402
0.000795279
0.000800315
0.000240864
0.000194002
0.000683356
0.0175136
0.000772768
0.0296686
0.0226478
0.0145799
0.00309909
0.00022424
0.000301523
0.000435499
0.0244905
0.0011086
5.2177e-05
6.70929e-05
0.000629165
3.19867e-05
8.90348e-05
5.99715e-05
0.0238487
0.0225539
0.00122512
0.0219428
0.0175791
2.71113e-05
0.000365282
1.10223e-05
1.98557e-05
0.000779021
0.019718
0.000162091
0.00174635
0.0164669
5.2312e-05
0.0210652
0.0012524
5.29025e-05
0.0281441
6.18228e-06
0.000288841
0.00205553
0.0192667
0.0163435
0.000366101
0.0175203
0.000359809
4.56506e-05
0.000627258
2.88134e-05
0.0228943
1.63364e-05
0.0144975
0.00042888
0.000605701
0.00057343
0.000775472
0.0218425
0.0278788
5.51482e-05
3.95502e-05
0.00273954
2.97926e-05
0.024073
0.000518315
2.49211e-05
0.000102419
0.000171521
0.024741
3.39375e-05
0.000573196
0.00025005
0.000488596
0.0237187
0.0242844
0.000629752
0.0229007
0.000285653
0.00359586
0.000116118
0.000648099
0.000389878
0.0245217
0.0146047
0.000189882
0.000477435
0.00097143
2.74065e-05
0.0302126
0.000537458
0.0219999
0.00016908
1.83553e-05
0.0249416
0.0239579
0.0214267
0.00125973
0.0226917
0.00182959
0.000547885
0.00317651
0.0279275
0.000871688
0.0238798
0.000540704
0.000804221
0.00691414
0.000257733
0.00298074
0.000718784
0.0215164
0.000791816
0.0693105
0.000258502
0.0241438
0.000440361
0.0125851
5.0339e-05
0.000232949
0.000919379
0.0246016
0.000613656
0.00065031
0.000365991
0.000323074
0.0590782
0.00055679
0.000178416
0.000576613
0.000549715
0.000885509
0.000575783
0.000906192
0.000172569
0.0247013
9.10931e-06
3.75201e-05
0.00398777
0.0003269
0.0576053
0.00126813
0.0387514
0.000268346
1.48758e-05
0.000519814
0.000804596
0.000540409
0.0014749
0.0214388
1.10659e-05
8.796e-05
4.78452e-05
0.00192276
0.03951
9.06806e-05
0.0216202
0.000291749
0.00016613
0.000691724
0.00810622
0.00191823
5.94136e-05
0.000149182
0.0234232
2.71912e-05
0.000322931
0.000170302
0.000126427
0.000789948
4.38372e-05
2.36455e-05
0.000102325
0.00390606
4.12927e-05
0.00061315
0.000680276
0.0212185
0.000254443
0.000316477
4.72999e-05
0.000488685
0.0229552
0.000483457
0.0134135
0.0700161
0.00053375
0.000262841
0.000339084
0.0208614
0.000663226
0.0193845
0.000167685
0.00018015
0.0210752
0.00144249
0.000467587
0.000572458
0.000120533
0.000585452
0.000870517
5.70252e-05
0.000648999
0.000189863
0.000168208
0.00029376
0.000189498
6.96963e-05
0.00025909
0.000535506
0.0191018
0.000196112
0.000199823
0.00371044
0.000236484
0.000567532
9.07187e-06
0.00300448
0.000125143
0.000280905
0.00246924
0.0222406
0.0240962
9.08293e-05
0.022744
0.000314566
0.00210184
0.0182448
0.0214268
0.0003127
0.0206461
0.00263688
0.000601798
0.067163
0.000209467
0.000286881
4.66151e-05
6.40981e-05
0.0196764
0.000542759
0.000737555
0.000840519
3.61772e-05
0.0249093
0.000430411
6.00115e-05
0.000664792
0.0196994
0.019568
0.000175398
0.000848517
0.000164043
0.0206808
0.0237492
0.000241243
0.000343891
0.000470897
0.000127408
0.0163775
0.00048078
0.00184573
0.000175127
0.000860725
0.0228544
0.0215995
0.0246162
0.00137609
0.000160603
0.000725111
0.000718101
3.90417e-05
0.000266494
0.020785
0.000165648
0.000129665
0.000238135
0.000230877
0.000403185
0.000724653
0.000543098
0.000367262
6.62975e-05
0.0316431
0.0201863
0.000308812
0.000448217
0.0237791
0.000229239
0.0157571
0.000254377
0.021192
0.000155949
0.000541188
1.20841e-05
0.00027684
2.27263e-05
0.000192358
8.07459e-06
0.0246128
0.00015311
0.000273568
5.58262e-05
0.000549971
0.000482715
0.000539684
0.0227876
9.89971e-05
0.000666226
0.000433196
0.0211071
0.00177228
4.5318e-05
0.00022432
0.000625393
0.0282166
0.0185605
0.000129468
0.000496284
0.0271347
0.0018295
0.0215151
0.000105594
0.000104191
0.000513277
0.00309091
3.44738e-05
0.0012287
4.6499e-06
3.15259e-06
5.36712e-05
0.0284816
0.0191546
0.000344273
0.0280064
0.000360028
0.000174954
0.00057565
0.0171749
4.54324e-05
0.000123057
0.000239196
5.93426e-05
0.023454
0.025948
0.000369034
0.000281024
1.27601e-05
0.000286679
4.5944e-05
0.0246829
0.000327456
0.00404815
0.0298896
2.98625e-05
0.000722163
0.012011
0.000196901
0.0130077
2.007e-05
0.000489674
0.000623867
0.0221486
0.00031799
0.0550601
0.016953
0.000373606
0.0212417
5.72661e-05
0.000475603
0.0228612
0.000716945
0.0231933
0.000829927
0.0197337
0.0223592
0.00148051
1.09444e-05
4.07175e-06
0.00054586
0.000445072
0.000238757
0.0212998
0.000533594
0.00074626
0.00383893
0.000774943
1.22314e-05
0.000748212
5.41397e-06
1.41713e-05
6.01671e-05
0.000565371
0.0243177
0.000442534
5.69167e-05
0.023502
0.0225864
4.09096e-05
0.000301946
0.000526829
0.000300042
0.0235447
0.000449336
0.000181026
0.000280806
0.0235801
0.00135121
5.29078e-05
0.00981135
6.16135e-05
0.0144227
4.25968e-05
0.000143362
0.0101858
2.10657e-05
0.000324303
0.000120134
0.000365848
0.0581737
0.00195818
6.17742e-05
0.0155413
0.0233112
6.48152e-05
0.000175511
0.011807
0.000242264
0.0246204
0.000559972
0.0229389
0.000375209
0.018239
0.000726052
0.000510897
0.000440506
0.00335137
0.000336189
0.0197261
0.000105037
0.0242721
0.000313153
0.0140456
0.000963494
0.000849369
0.0335374
6.17503e-06
0.00101093
0.000549167
0.0394838
0.00170654
4.43092e-05
0.000531812
0.00033424
9.44931e-06
0.000551719
0.0183632
0.0001588
1.46471e-05
0.0220296
0.000176523
0.0236939
2.99549e-05
0.0230374
0.000416502
0.000553627
0.000288278
7.1497e-05
0.000824274
0.0264271
0.000238408
0.0197286
0.023234
0.00013768
0.000599666
0.0207082
0.000230791
0.0247786
0.000697812
0.000648913
0.000110201
0.0143927
0.000548884
0.000230725
0.000340847
0.000551327
0.0172763
0.000690132
0.000521761
0.0230589
0.00103359
6.47299e-05
0.00079037
0.0118776
0.000128083
0.00194533
5.61901e-05
0.017087
0.000327641
0.00033923
0.000351209
0.00727691
5.57123e-06
0.000109286
0.017111
0.000521018
0.0221669
0.000483907
4.16642e-05
4.5843e-05
0.0240763
0.000131116
0.0231957
0.000229309
0.000208822
9.91616e-05
0.000557388
7.01796e-05
0.0191729
0.0679526
0.000274496
0.000960657
0.000442786
0.00101409
0.000828082
4.20895e-05
0.000168865
0.0244128
0.00388911
9.9138e-05
0.022099
5.34432e-05
0.0248964
0.00053765
0.00133142
0.0232318
0.0238303
0.0221813
0.057349
2.04544e-05
0.0263882
0.00443461
5.59956e-05
1.6272e-05
0.000854716
0.00017753
0.0170043
8.64021e-05
0.00139254
0.000551098
0.0236986
0.000988944
0.0246468
8.16108e-05
6.54975e-06
0.00181513
0.000233275
0.000547338
0.0230126
0.000747883
0.000610469
0.000191033
8.73975e-06
0.0208618
0.0209274
0.00127291
0.00026607
8.73329e-05
0.0123228
6.43073e-06
0.00102021
0.000178281
0.000399793
4.15253e-05
0.00179202
1.46447e-05
0.000899048
0.000788189
0.0282215
0.000153343
0.0047372
0.0243311
0.0205157
0.0232916
0.000448247
0.0176727
0.000176471
0.0229321
2.83296e-05
0.000546226
4.59644e-05
0.000333449
0.000602779
0.0514681
0.0169805
0.0195449
3.6945e-06
0.000546792
0.0247316
0.00128685
0.000560514
0.000169538
0.000354806
0.0235604
0.000612958
1.76014e-05
0.000920803
0.000389752
0.0233314
0.000627992
0.0232529
0.0123315
5.44548e-05
6.79692e-05
0.000366561
0.0224521
4.57044e-05
0.000539346
0.00020517
0.000176369
0.0242932
9.38996e-06
0.000262027
4.96083e-05
0.000835154
0.00011002
0.0202803
5.06807e-05
0.000222883
0.000182419
0.000192069
0.0269599
0.000198194
0.000162797
0.0216664
3.8598e-05
0.0225851
0.000361398
0.00055249
0.000103042
0.000494252
0.000566869
0.000467817
0.0236637
0.00053426
0.0002074
0.000235053
0.000203095
0.000169558
0.0194874
1.02029e-05
0.000112974
0.022427
0.0195385
4.90128e-05
0.0246062
0.000262255
0.000437661
0.0232939
0.000291707
0.026604
0.000139131
0.00037301
0.000493214
0.000500005
5.33307e-05
0.0142016
0.000597029
0.000530853
0.00350802
0.00135792
5.20679e-05
0.000714054
0.000534073
1.42868e-05
0.000172758
5.428e-05
0.000118504
0.0217283
0.000514686
0.000102905
0.000113086
0.000382147
0.000548291
0.0198415
0.0268672
9.93345e-06
0.0221693
0.000746557
1.77439e-05
0.000238942
0.0245643
0.0149491
0.000171648
0.0184926
0.000736102
0.000165231
0.000402914
5.64995e-05
0.000196542
0.000110678
0.000547398
0.000216777
4.07119e-05
5.8537e-05
0.0232357
0.0170418
0.000110763
5.79713e-05
0.00281249
0.000648282
0.00399053
0.0249413
0.000834679
0.000362627
0.000223486
0.0249097
0.0220268
0.0196042
0.000168442
0.0154548
0.000210622
0.000522504
0.00044054
0.000309746
0.0207226
2.64803e-05
0.0237788
0.000173428
4.96962e-05
8.71192e-06
0.00226821
0.00837237
0.000450469
0.0239736
1.24734e-05
0.000743152
0.0048273
0.00365591
0.000242284
0.00169864
8.22771e-05
0.000205024
0.0220855
0.000100573
0.000578529
0.00078485
0.00650837
0.000545648
0.000550832
0.000883167
0.02001
0.0240241
0.000432333
0.00060737
0.000241471
0.000167044
0.000730126
0.00219466
0.000201503
0.000109684
5.66529e-05
0.000526091
0.000146043
0.000373708
6.5375e-06
8.31991e-06
0.024256
2.30273e-05
0.000437846
0.0218765
2.38216e-05
0.000258135
0.00448723
0.0184166
0.000287459
8.62113e-05
8.73921e-05
0.000203198
0.000332716
0.00237961
0.00981208
0.000846948
0.000940303
0.0240796
9.71018e-05
4.2016e-05
3.37304e-05
4.24793e-05
0.0324757
0.000171918
0.000371834
0.000172053
0.0247177
0.0198158
0.000570109
0.000569674
0.0241674
0.0560809
5.43238e-05
1.20994e-05
0.000254679
0.000764878
1.62036e-05
0.0169657
0.000617791
3.37418e-05
0.0226721
0.000241422
0.00150388
0.0242409
0.0249948
1.74226e-05
0.00570873
0.000536207
5.38239e-05
0.000217556
0.000105882
0.000334129
5.4162e-05
0.00769739
0.0149057
0.000955905
0.0220496
0.000339288
0.000738132
0.0163602
5.797e-05
0.00101862
0.000743909
0.0183287
0.0192714
0.000486902
0.00479943
0.000508694
0.000656715
0.000779365
0.000570554
0.00066205
0.000664888
0.000167934
0.0199305
0.000629936
0.000254763
3.56654e-05
0.0195096
0.0204221
3.92326e-05
2.14691e-05
0.0208146
0.0037113
3.12525e-05
0.0214807
0.00015266
0.0172571
0.000156835
0.000223545
0.000252966
0.000315437
0.000167271
2.54561e-05
0.0672189
0.000174917
0.0228859
0.00022726
0.00054334
0.022931
0.000269668
5.34529e-05
0.00094654
0.000797685
0.0220753
0.000606367
0.0227101
2.61898e-05
0.000261984
0.000438817
0.000385355
4.557e-05
0.000180901
8.60261e-05
0.010359
0.000112359
6.63516e-06
0.000247619
0.000830565
0.000166286
0.0143267
0.0223865
0.000590747
0.0235978
0.00960708
0.0247268
0.000719981
0.000529414
0.000219124
0.0186709
0.000174024
3.08555e-06
0.000146543
0.000386805
6.14128e-05
8.29856e-06
0.000315109
0.000223227
0.000724976
0.000302759
0.0244594
0.000463472
1.08179e-05
0.000326732
0.0152689
0.000244496
0.00067991
0.0532096
0.000544343
0.000552862
5.79497e-05
0.000788386
0.00119069
7.06919e-05
4.73454e-05
6.94197e-05
0.000651215
0.0229658
0.00036703
0.0173173
0.00483166
0.000982106
0.000168958
0.000190744
5.85841e-06
2.65994e-05
0.00018844
0.0235673
1.05625e-05
0.00051914
3.92741e-06
0.000318889
0.0233174
0.00693676
0.022962
0.000514609
0.000151566
0.000461536
0.01494
0.000419738
0.0220421
0.000513995
0.000116144
3.88135e-05
9.16599e-05
0.000522882
0.000624438
0.000321716
0.000535633
0.000773583
0.000166764
0.000587616
0.00170391
0.019422
0.000208618
5.27202e-05
0.000351848
0.00016253
6.75209e-05
0.00148765
8.2934e-05
6.87415e-05
0.000109299
0.0676427
0.000827994
0.000322493
0.000610309
0.0194165
0.0223894
0.0232249
0.00020396
0.000827638
0.000912395
0.0210589
0.000160535
0.000288111
4.58581e-05
0.000517546
1.34511e-05
5.06327e-05
0.000641229
3.24467e-05
0.000584668
1.97534e-05
0.0230455
0.00284697
0.00070164
0.00023938
0.000213519
0.000282167
0.000396743
0.0243477
0.000203189
0.00265325
0.000236047
0.0237439
0.0238991
4.37922e-05
1.34213e-05
0.000135001
8.77793e-06
5.5828e-05
0.000826166
0.000820337
0.0220811
0.000918504
0.0240555
0.000701485
0.000321894
6.98275e-05
0.000701755
0.000375978
0.0514861
0.0235526
0.00047505
0.00186723
0.000938144
0.000529925
0.0191494
9.97313e-05
0.000142605
0.000517436
1.54445e-05
0.05279
0.000275161
0.0244295
6.38943e-05
4.77776e-05
2.0776e-05
0.000348902
0.000237906
0.000752753
0.000650259
0.0194801
0.0236274
6.68103e-06
1.42334e-05
0.000255614
0.000276599
7.11691e-05
0.00352306
0.00072734
0.00239368
0.000520317
0.00218465
0.0231682
0.00280723
0.000195226
4.5673e-05
0.000365599
0.000606723
0.00182546
0.000171801
0.000734473
0.00301111
0.000416858
0.00415222
0.000704142
1.59077e-05
0.000197456
0.0199617
0.0132782
0.0196632
2.21203e-05
0.0229588
0.0157813
0.000533879
0.000397125
4.44022e-05
0.00054471
1.38649e-05
0.0229205
0.000234839
5.0997e-05
0.000153739
0.000706748
0.000238886
0.0226713
0.000400304
0.00189782
0.0240404
0.000274069
0.000199174
0.000485115
0.0005347
0.000273621
0.000737639
0.000100894
0.000251951
6.64964e-05
0.000596488
8.93573e-05
8.51365e-06
0.000545173
8.40723e-05
0.0205727
2.90681e-05
0.00022317
0.000125417
0.000621438
0.00022098
4.62646e-05
1.0308e-05
7.40171e-06
0.000154995
0.0212341
0.00052796
0.000100604
0.0260579
0.000102332
0.000391743
7.67661e-05
0.000812934
0.0142808
0.000555202
0.0247608
0.0261636
0.00017664
3.70336e-06
0.0583531
9.04463e-05
0.000536989
0.00121216
0.0236603
0.000227749
0.000636149
0.000649698
0.000388022
0.000300271
0.00053191
0.000842831
0.025041
0.0186253
0.000182654
0.0151234
0.0161039
1.06458e-05
0.000864334
0.0171744
0.0231722
0.0237434
0.000543317
0.000142675
0.0265736
0.000355687
0.000661995
0.000177475
0.0147907
0.0221469
8.43817e-05
6.88246e-05
0.000140953
0.000168584
0.016604
0.000155106
0.000174718
0.000353194
0.0238621
0.00167744
0.000222584
0.0239649
0.0247397
0.0240678
0.0257886
1.48242e-05
0.000732793
0.0198764
0.0214155
0.000360655
0.00090815
0.000128153
0.000155768
0.0172453
0.000699261
0.00176
0.0199049
0.000126667
0.0243988
0.0250429
0.0241119
0.0684171
5.63918e-05
0.000242023
0.000655289
0.000376177
0.00743494
0.00558907
2.20339e-05
8.70141e-06
0.00105214
0.000250219
0.000254305
0.00146054
0.000229644
0.0239132
0.000177957
0.000302058
0.000408624
1.6122e-05
0.000962227
0.0230066
0.000107636
4.97209e-05
0.0275536
0.024109
0.000463647
0.000111383
0.000251248
0.000990755
0.000301249
4.38706e-05
0.000655909
0.000542033
0.0228188
0.0496636
0.0244505
0.000232679
0.000537467
0.000538397
0.0295024
0.000224929
0.000794322
0.000246186
0.0175396
0.00038421
0.0232405
0.0187435
0.00104011
0.000464371
8.49812e-05
3.86777e-06
0.0209441
0.000400424
0.000286177
0.066417
0.000167704
0.000254277
0.000653507
0.024643
0.000184789
0.000386477
0.0188952
0.000169087
0.003388
0.000174988
0.019388
0.000793386
0.0242992
0.000567855
0.000483081
0.000530256
0.000179675
0.0162496
0.000548721
9.7174e-05
0.000678017
0.0013575
0.000695833
0.0234128
0.00136758
0.0161515
0.000335633
0.000710921
0.000258153
0.000291261
0.00252324
3.17769e-05
0.000649096
0.0269944
0.0159263
0.00142579
0.0236131
3.24791e-05
0.00174512
9.24608e-05
0.00851959
0.000160218
0.000631155
0.0239496
0.0238977
8.51052e-05
0.000848864
0.0237452
1.51488e-05
0.000569585
0.000327311
0.000387437
0.000726065
1.56174e-05
0.000145437
0.000398077
0.0209749
0.000819264
0.00142993
0.0233546
0.00129738
1.47377e-05
0.00083666
0.000125489
0.000640664
0.0416476
0.000983148
0.0243236
0.0271687
0.000311168
0.000198753
0.00013422
0.0241499
4.20464e-05
0.000134872
0.000360133
0.000409187
0.023796
3.93646e-05
0.000464176
0.000537963
0.0243904
0.0236363
0.000531839
0.0228232
3.8301e-05
0.000110975
0.0238326
0.017576
0.000549592
0.028496
1.68238e-05
9.78877e-06
3.8569e-05
0.00292428
0.000692789
4.00442e-05
0.0169864
0.000153511
0.0283114
5.03715e-05
3.05908e-05
0.000174794
1.69743e-05
0.0565335
0.0552408
0.000115716
0.0188454
0.000242654
0.000396358
0.0237709
0.000313327
0.0018342
0.000361189
0.00060828
0.000109184
0.000297848
1.25843e-05
0.0193125
0.000152587
3.17706e-05
0.00117624
0.00019397
9.71793e-05
0.00054457
2.9924e-05
0.0234194
6.7355e-05
0.0287547
0.00044165
0.000151877
0.0229576
0.0236011
0.0208579
0.000352265
0.0212928
0.020376
0.000448644
0.000655321
0.0673906
0.0230714
8.27426e-06
0.00020484
0.0212051
0.021378
0.000275585
0.0238199
0.0218835
0.0244878
0.0236091
2.32272e-05
8.49567e-06
0.000609604
0.000317576
0.001182
0.00221648
0.0209649
0.000524286
0.0217363
3.69753e-05
1.83999e-05
0.000176902
0.0181522
0.0227326
0.000505591
0.000179433
0.0222378
0.000200226
0.000565267
0.00092908
3.43209e-05
0.0308247
0.000156563
0.0234049
0.00259312
0.0008445
0.012191
0.000808906
0.000666365
0.000239203
0.0637036
0.00035367
0.00992396
0.000265068
4.47023e-05
0.000515034
0.0245109
0.0243328
2.91792e-05
0.000391067
0.0164897
0.000199538
0.00101425
0.0232326
0.0135499
0.0127354
0.000865615
1.86503e-05
0.0202261
0.00609862
0.0235001
0.000231814
0.024718
0.0138434
9.70467e-05
4.24473e-06
0.000189575
0.00173128
0.0237923
0.000730223
0.0149773
0.000480733
0.000363238
0.000311427
0.00283417
0.000329757
0.000623606
0.000263626
0.000561773
0.000469539
0.0212832
0.00076741
0.000402621
0.0231602
0.000141151
0.000468646
0.0188757
0.00118509
0.000689448
9.28409e-05
0.00024561
0.000547061
5.94673e-05
5.10773e-05
0.000265476
0.0252485
0.000843641
4.00928e-05
0.000653883
0.000101766
0.000455584
0.000360332
0.0136922
0.00374949
0.000313198
4.8306e-05
1.87153e-05
0.0250421
0.000510471
0.00016628
0.000252506
0.0191087
0.000108693
0.0233841
0.0236771
1.34031e-05
0.0229975
0.024389
4.89036e-05
0.000151499
0.02262
0.000467713
0.000126727
1.42904e-05
2.32664e-05
6.0309e-06
7.68023e-06
6.42078e-06
7.58019e-06
2.15602e-05
9.88102e-06
1.61342e-05
0.000400489
0.00199511
5.8583e-05
3.91366e-05
0.0171469
5.05177e-05
0.0674112
9.48346e-05
3.04874e-05
0.000322701
1.17865e-05
0.0207126
5.84031e-05
0.000705676
6.15412e-05
0.000533235
0.000572317
3.61063e-05
0.0229075
0.000280664
0.000355953
0.000706238
0.000872979
0.00400267
0.000347826
0.000401386
7.82858e-06
0.000621074
0.000254556
0.020097
0.000927587
0.00162663
0.0240013
0.000126647
0.00015708
0.000110222
1.27771e-05
4.96549e-05
0.000115199
0.000609926
8.29642e-05
5.01926e-05
0.0232777
0.000545326
0.0386167
0.000369131
0.0137415
0.0241602
0.000156223
0.0330241
0.00129782
0.000417196
8.46216e-06
0.00233861
4.80624e-05
0.020664
0.0239602
0.000158196
0.000276026
0.000184733
8.61277e-05
0.02455
0.0164262
0.000626598
0.000348517
0.018063
0.000217347
3.31747e-05
0.020831
7.88998e-05
0.000942299
0.00053795
0.000557124
0.00126606
0.020229
0.000173761
0.000981257
0.0006091
0.000209807
0.0136724
0.000857997
0.0232723
0.0253536
0.0212252
0.022459
0.000387801
1.48962e-05
0.000343297
0.0231494
0.000533843
0.000554091
0.000155446
0.000315159
0.00414305
9.29345e-06
2.12324e-05
0.000334625
0.016985
0.00300059
0.000230532
0.0191126
0.0633401
0.000122514
0.00227345
0.0227938
0.0241079
0.0193237
1.9104e-05
0.02458
0.000570588
0.00066928
0.0171862
0.0240864
0.000108501
9.90219e-05
0.000208924
5.32033e-06
0.000333386
0.000537707
3.67212e-05
7.00459e-05
0.000727452
0.0216506
0.000635883
0.00112875
0.00271911
0.000118446
0.000496024
8.64786e-05
0.000529693
0.0237705
0.000723949
0.00062243
0.00030748
0.000545134
0.000677244
0.000822742
0.000529625
0.0207261
7.35276e-05
0.000368112
0.00011378
5.19431e-05
0.00141235
0.0020991
0.0204178
0.0181369
0.0618137
0.000115724
0.0233892
0.000170336
0.000669013
0.000150125
5.92859e-05
0.00023839
0.000196129
0.0131837
0.000369678
0.0145367
0.000609149
0.000429237
0.000378104
0.000754932
0.0236272
0.0006079
0.000369128
3.37216e-05
0.000615003
0.00509939
0.000592956
0.000214267
0.000618219
0.000644671
0.000442339
0.000534922
0.023893
0.000600486
0.000154546
0.0236119
0.0241434
0.000368528
0.000360907
0.0193291
0.00219734
0.00240357
0.0235216
0.0196184
0.0113212
1.28991e-05
0.000721924
6.81838e-06
0.0221874
4.50197e-05
0.00047347
0.000890998
0.00110008
0.000714093
0.00808534
0.000287046
0.000996376
0.0237473
0.000728145
0.0193393
0.00054154
0.0190316
0.0189698
0.0002633
0.000186721
0.000158283
0.00137349
4.05506e-05
3.66512e-05
0.000146588
0.000175691
0.000958796
0.00228063
5.66794e-05
0.000121582
0.000533775
0.00038384
1.38087e-05
0.000518506
0.000271954
0.000247419
0.015143
0.0226608
0.000534054
0.000881571
0.0123714
0.0237352
0.000698162
0.0158735
0.000417356
0.000471824
0.0194079
0.0240485
0.0432027
0.000159889
0.00240806
0.0216901
0.000936251
0.0176808
0.0153969
0.000768057
5.10793e-05
6.54024e-05
9.8513e-05
0.000590918
0.000241897
1.522e-05
4.74923e-05
0.024536
0.0242656
0.000227425
0.0231807
0.000533126
0.000122024
0.0034285
0.000527357
0.000645928
0.0239828
0.000373671
0.000768603
9.07815e-05
0.000167335
0.0290676
0.000710776
0.0223687
0.0235095
0.000330026
5.24154e-05
2.84948e-05
0.000250605
0.0199842
9.31922e-05
0.000249011
0.0606621
5.5106e-06
0.0216275
0.000125371
0.0209349
0.000344024
0.0051058
0.00216886
0.000265194
9.03128e-05
0.000439629
0.000511667
0.0238241
0.000639654
8.86576e-05
0.00133825
0.00049128
0.0044845
0.00016079
0.000761543
3.81116e-05
5.70894e-05
0.0240137
0.0208031
0.000455111
0.000249973
0.000328665
0.000331287
0.0005105
0.000364162
0.0177235
4.25715e-05
0.000844968
0.0161425
0.00040848
0.0275667
0.000407974
0.00036042
0.00109112
0.0242181
0.000837847
0.000106105
8.30413e-05
1.26761e-05
0.000356949
0.000120521
0.000344838
0.000512243
7.93215e-05
0.000763841
5.25897e-05
8.31614e-05
0.000253498
0.000570244
9.01258e-05
0.000226352
0.000641761
1.95236e-05
4.317e-05
0.000426248
0.000143665
6.20869e-05
0.0236266
0.00020753
0.000114925
0.0242655
0.00085287
0.00057713
0.0232169
0.0245045
0.000357725
0.000595306
0.0102332
0.0241958
0.000519301
0.0236181
0.0332245
0.000427486
0.0250799
7.20179e-06
0.000392103
1.19793e-05
2.61297e-05
0.00025168
0.00429424
0.000582381
0.000361449
0.000505994
0.0244236
0.000323588
2.77936e-05
0.000170775
0.000368245
0.000154833
7.87716e-06
0.00034001
0.000133934
4.40643e-05
0.00125681
3.37986e-05
0.022774
0.0230438
0.00153173
4.01757e-05
0.0208324
0.0205067
0.015403
0.0234592
0.000307445
0.000642607
0.000821665
0.00336761
5.12711e-05
0.00126982
0.000544766
8.13028e-06
0.000166922
0.000152576
4.55364e-05
0.000175253
4.77832e-05
0.000342215
0.023813
0.000181923
0.000264646
0.000111015
0.0156141
0.000496331
0.000339315
0.0252496
0.000233326
0.00024348
5.4912e-05
0.000140523
0.000173802
0.00380401
0.00018851
0.023985
0.0268635
0.0238378
3.71569e-05
0.0072999
1.44005e-05
1.40782e-05
0.000787877
0.000886668
0.000151127
0.000572234
0.000428141
0.00025221
0.0230403
2.77711e-05
0.000878296
3.91202e-05
0.0276418
0.000108497
0.000560067
2.3072e-05
0.00450377
0.000277745
0.00014272
0.0240077
0.0261557
7.38201e-06
0.0239276
5.06331e-05
0.000134649
8.46798e-05
0.000547032
0.000350192
0.000162977
0.000160696
0.0237161
0.000111582
0.000536351
0.00322875
0.000368101
2.65758e-05
0.000199092
0.00276184
0.000284305
0.0232343
0.000318927
0.000545884
0.0223701
8.65067e-05
0.000563794
0.000259629
0.000845498
0.0222725
0.0224083
3.35001e-05
0.0148629
1.57884e-05
0.000127112
0.0236492
0.000685741
0.000553344
0.000816854
0.000576069
0.000343244
0.000841669
0.0202428
0.00622211
5.68315e-05
0.000253372
0.000264902
0.00035458
0.00659708
0.000124804
0.0484731
0.00122757
0.000546841
0.000672476
9.24005e-05
7.67112e-06
0.000231932
1.34957e-05
0.00054539
0.0196073
0.00022003
0.000520243
0.0250063
5.3025e-05
0.019477
0.0243685
0.0221366
0.000434646
0.000397745
0.000273199
0.00057855
0.0168467
0.000833389
5.96446e-05
0.000168379
0.000269248
0.0107126
0.000211077
0.000296185
0.000123343
0.0240311
0.0200336
0.000474362
0.000300694
0.000261669
3.41398e-05
1.00215e-05
0.00475868
4.33301e-05
7.53933e-06
7.45419e-05
0.000175799
9.86374e-05
0.000830691
0.00441631
0.000897548
0.000296216
0.000182814
0.000819478
2.06109e-05
0.000388741
0.00232641
0.000995052
0.000155895
5.19447e-05
0.00330329
0.00110874
4.39638e-05
0.001084
0.0290152
0.019206
0.000691777
0.0160785
0.0237016
0.000360646
1.33291e-05
0.0197528
0.000261916
5.23274e-05
1.69689e-05
4.36766e-05
0.0223161
0.0189441
0.0195425
0.000501815
8.97937e-05
6.1423e-05
0.000215831
0.00017217
2.08101e-05
0.00154951
0.00160579
0.0138396
0.0227416
0.00075495
6.63472e-05
5.21947e-06
0.0206278
0.000228148
0.000317915
1.72295e-05
4.30786e-05
0.000531142
0.0133906
0.0152609
0.000281783
0.000398068
0.00698178
0.000606476
0.000170643
0.0237336
1.60734e-05
0.00027075
0.019879
0.0245265
0.000897133
0.019831
0.000521264
0.0188029
3.08867e-05
3.87718e-05
6.33353e-05
0.00018815
0.000148599
0.0240899
0.000289826
6.29288e-06
0.000127665
0.000835823
0.000151803
2.76726e-05
0.000672729
0.000319807
0.000529376
6.13109e-05
0.0223394
0.000318715
6.47753e-05
0.000138682
0.000559146
1.20647e-05
0.0226359
4.79348e-05
0.000608883
9.47818e-06
0.000362826
0.00498288
8.96846e-06
0.0219596
0.0208437
0.0242583
1.08298e-05
0.000119904
8.73898e-05
0.000541475
0.000478565
0.000220597
0.000359328
0.0242388
2.60868e-05
0.000798404
0.000301484
0.000808152
0.00024607
0.000111023
0.0186596
0.000260302
7.57174e-05
4.22206e-05
0.000462182
9.75759e-05
0.000159059
9.10269e-05
1.65287e-05
0.000269851
0.000341595
0.000536056
0.000217228
0.0243667
0.000525373
3.31478e-05
3.75966e-05
0.000148285
0.0174699
0.0138725
0.0231741
0.000988743
0.0107298
0.000148347
0.00031015
0.0175348
0.000770099
0.0237856
0.000591534
9.96911e-05
0.00013727
0.000220152
0.0227487
0.000263223
0.0002621
0.0245024
0.0240067
0.000596359
0.0238138
4.66153e-05
0.0231726
0.000616557
2.04348e-05
0.000298442
0.00140895
0.000174087
0.0107412
0.0262805
0.00015356
0.00204817
0.000449849
0.0243173
0.000391372
8.89252e-05
0.00700237
0.00549213
0.015105
2.88718e-05
0.0245751
4.42713e-05
0.000782204
0.000103392
1.24112e-05
5.9234e-05
6.41365e-05
0.00160228
0.000335738
0.000815069
0.0247365
0.000637302
0.0220674
0.0139156
0.0131858
0.00127156
0.00885899
0.0011965
0.000659619
1.24021e-05
5.9237e-05
0.000167349
0.0199683
0.000175597
1.17305e-05
0.0103556
0.0243667
0.00131611
0.000299769
0.00102545
0.000182437
9.26481e-05
0.000223229
4.75706e-05
0.000441063
0.000144818
0.0243294
0.00074761
0.000527274
0.000427593
1.12711e-05
0.00019879
1.52906e-05
0.000712433
0.0228183
1.12563e-05
0.000127437
0.000567169
0.0205815
0.00022627
8.75082e-06