/*--------------------------------*- C++ -*----------------------------------*\
  =========                 |
  \\      /  F ield         | OpenFOAM: The Open Source CFD Toolbox
   \\    /   O peration     | Website:  https://openfoam.org
    \\  /    A nd           | Version:  8
     \\/     M anipulation  |
\*---------------------------------------------------------------------------*/
FoamFile
{
    version     2.0;
    format      ascii;
    class       volScalarField;
    location    "0.0001";
    object      T;
}
// * * * * * * * * * * * * * * * * * * * * * * * * * * * * * * * * * * * * * //

dimensions      [0 0 0 1 0 0 0];

internalField   nonuniform List<scalar> 
23640
(
120.316
99.5744
276.684
300.072
98.5955
272.622
76.4899
171.098
123.848
221.212
298.074
87.6406
80.988
96.8076
299.079
273.479
108.736
270.249
287.925
109.722
295.728
253.848
295.288
298.942
111.95
82.8968
168.719
115.909
110.572
105.325
77.4635
299.977
295.892
95.8211
117.807
302.418
109.361
80.6533
226.973
301.096
96.9935
126.677
101.715
219.535
299.396
184.984
111.19
107.365
218.125
174.633
299.945
272.863
295.074
103.66
300.1
296.426
233.706
102.266
89.0937
297.677
77.5167
183.375
300.999
275.724
92.4657
275.323
269.952
104.663
267.668
100.245
301.676
95.2249
288.706
112.169
280.072
299.916
304.637
80.2037
288.384
300.895
193.321
140.447
109.542
110.425
93.036
274.292
272.359
301.597
295.698
299.882
81.0672
103.254
240.392
288.624
271.994
93.7362
277.301
295.159
170.078
249.555
141.599
102.901
300.865
84.4099
126.16
79.8478
300.588
89.2154
88.6222
150.853
79.3641
288.758
97.9782
102.34
199.033
83.4044
299.827
79.2872
120.103
105.884
302.393
299.712
296.516
299.729
138.779
300.51
299.96
156.586
268.544
104.73
128.561
129.119
81.3995
151.883
84.4049
301.916
297.535
107.309
297.762
280.113
159.543
241.464
287.88
298.115
289.67
119.484
299.185
300.706
84.9804
274.511
180.553
283.553
101.51
301.043
122.259
79.2242
76.6786
94.919
273.559
167.456
302.606
286.313
301.048
266.616
86.2957
83.6364
301.602
172.334
300.448
129.158
107.097
197.231
274.676
87.476
301.124
301.166
105.038
187.635
300.924
112.545
299.497
288.768
107.718
109.96
106.844
232.829
136.868
201.48
296.44
112.386
149.35
298.391
299.488
100.594
104.341
301.43
127.774
276.717
271.923
159.082
293.459
205.877
81.6557
126.944
290.526
81.195
276.563
295.455
176.978
301.407
96.9953
103.814
119.206
83.6181
287.18
122.906
108.852
109.054
242.415
170.801
117.5
298.014
293.573
87.8596
298.391
96.6338
82.6966
299.746
177.489
81.3796
119.485
98.6692
103.879
102.344
94.7326
139.796
301.412
121.63
85.4807
194.363
140.005
221.326
96.7245
133.717
300.371
102.063
156.118
291.216
300.932
300.607
297.91
83.5355
110.77
301.112
83.7515
301.249
243.908
97.1585
299.597
299.751
299.354
80.2981
133.253
89.057
114.061
101.963
155.695
189.613
82.2994
268.909
197.269
105.411
303.618
296.894
158.078
96.015
106.218
299.706
276.419
86.6881
300.8
145.454
230.446
298.64
223.782
184.609
226.038
290.977
102.662
298.506
100.966
105.07
118.283
253.445
297.6
146.798
98.8296
111.677
85.859
125.323
174.773
276.87
299.763
105.701
296.975
93.7968
131.277
169.212
299.725
288.58
92.0999
148.204
301.096
287.989
293.077
153.942
188.562
261.295
273.266
259.189
144.693
95.6758
118.868
114.777
84.2723
154.741
294.431
145.844
160.524
299.956
231.532
164.525
110.309
122.843
122.407
107.165
279.346
180.816
154.314
85.718
285.617
284.126
121.349
299.576
298.883
267.239
174.194
88.3636
95.565
104.463
299.919
158.278
93.0615
79.2762
118.175
88.1427
165.404
80.959
301.011
298.167
135.809
296.405
279.717
125.407
118.137
137.514
105.773
201.24
288.411
105.147
169.937
295.649
90.8631
293.383
137.213
92.3537
297.561
200.467
145.071
155.623
287.832
293.547
122.778
283.138
139.267
84.3901
261.994
82.3493
301.254
102.629
265.042
281.648
303.217
290.089
188.248
299.807
299.556
81.9719
110.715
169.857
215.565
301.912
250.904
101.399
81.5088
82.3598
299.101
110.855
281.428
266.831
277.636
300.916
300.83
127.06
299.207
95.431
181.53
85.3905
163.237
101.358
299.685
265.91
85.2813
284.387
198.214
90.9685
299.644
300.465
296.565
240.854
111.598
299.274
301.472
294.992
137.06
298.925
169.038
300.988
186.015
296.739
124.064
301.049
303.715
230.846
215.107
242.697
173.096
217
294.998
198.351
300
263.292
301.077
274.72
257.555
84.2306
98.4455
130.698
299.361
261.206
159.982
212.106
96.9317
300
288.337
106.944
289.036
300.886
171.284
154.931
126.297
99.9588
299.434
199.539
185.097
187.233
115.349
299.995
148.203
299.448
224.392
110.314
109.447
224.32
294.196
181.013
296.638
192.434
77.8758
110.885
154.435
299.114
80.7696
300.833
137.682
82.046
229.411
228.412
190.668
80.4656
92.6222
300.443
91.7365
111.263
96.8639
84.5101
181.53
91.2436
105.243
81.9614
187.027
141.907
275.46
278.733
294.419
90.3323
96.6048
105.645
137.766
299.312
283.685
259.507
300
304.767
101.956
98.2546
293.273
142.109
288.107
95.8408
83.5837
298.254
149.271
296.061
306.487
86.4164
291.351
133.425
90.3305
120.997
264.772
96.8863
140.485
85.285
112.859
106.279
303.874
291.456
115.494
115.234
190.818
101.771
306.369
176.942
183.344
91.2208
111.092
231.859
297.392
301.114
230.298
299.853
109.228
160.472
282.519
294.915
268.485
291.951
185.815
275.21
300
97.2246
139.391
77.1745
79.2151
288.257
298.165
272.949
140.452
110.298
299.355
125.23
81.1011
144.37
288.444
295.618
257.724
143.366
82.3383
292.09
300.955
123.213
100.847
136.162
85.2167
274.324
107.247
150.968
100.628
182.076
299.105
295.242
299.313
149.191
106.02
272.367
219.224
151.277
91.7102
293.192
103.429
184.399
89.8188
115.622
268.925
206.418
305.803
123.258
113.496
299.69
290.281
98.816
112.58
300.983
99.3995
271.233
95.9057
293.832
95.3438
304.227
127.533
209.787
224.426
112.112
152.588
299.61
93.4561
97.9723
82.1874
301.962
134.751
298.653
300.007
79.73
285.31
125.488
293.537
149.973
84.7338
88.4453
257.472
299.661
290.992
83.1464
108.183
295.317
187.19
296.834
83.7424
243.273
109.05
177.151
81.8571
159.114
264.495
270.613
164.16
299.361
292.58
247.137
299.725
143.959
82.9394
279.049
277.847
114.034
87.2084
101.624
114.109
300.501
297.78
120.321
111.782
209.855
93.496
84.5503
299.082
97.3664
191.401
299.603
110.143
285.129
256.256
95.9238
257.288
110.944
291.676
120.355
299.935
96.7728
299.998
276.858
100.475
300.723
82.1401
114.617
301.646
216.306
301.059
163.969
289.111
301.007
175.928
150.957
260.249
302.207
281.982
94.8442
294.664
307.55
125.606
184.961
193.843
158.42
120.132
287.893
110.947
103.565
115.637
300.572
126.414
82.4264
300.502
300.366
74.7323
95.5741
306.962
96.1409
300.578
126.418
258.879
92.9151
300.633
173.059
84.7322
239.86
81.1216
285.918
90.9943
97.6767
239.368
101.395
122.123
90.7179
123.939
299.994
154.756
88.9728
270.602
301.723
78.3935
94.2128
253.626
107.746
299.277
298.344
299.258
100.264
283.187
119.109
287.017
105.257
180.794
97.959
296.41
83.3054
300.96
115.236
262.56
275.459
166.45
299.774
253.283
269.315
296.087
299.288
148.664
85.6283
109.745
98.2835
190.95
295.964
287.06
95.3839
159.949
299.428
274.44
300.93
119.742
301.526
154.5
250.152
132.6
79.8308
184.772
295.986
96.5584
288.528
300.103
97.3836
281.098
298.114
100.17
298.883
270.364
154.81
74.5697
299.748
302.553
88.1347
118.266
301.057
302.737
117.444
310.165
300.906
130.591
79.8246
187.24
254.38
90.2387
153.685
81.697
277.44
97.5612
122.109
273.644
218.212
212.819
85.7477
277.559
183.119
297.029
117.255
73.0794
84.598
301.03
90.7922
301.84
100.047
115.022
80.3262
287.969
158.632
286.412
300
209.562
131.669
147.139
139.737
159.381
122.668
100.589
300.921
184.055
81.0009
296.836
83.7186
299.262
304.952
155.79
301.173
301.028
297.149
299.999
105.269
294.457
201.156
83.3564
101.858
158.003
111.067
277.108
77.0813
175.467
199.935
300.9
129.517
299.221
171.382
245.437
150.419
88.3563
303.18
302.281
120.277
291.44
261.011
203.437
297.174
292.928
266.728
107.185
77.4777
255.802
261.877
133.387
268.021
166.211
77.3039
160.268
103.385
212.427
124.299
295.169
93.3882
194.264
300.62
291.502
300.096
291.592
284.73
107.597
301.44
94.2032
297.52
108.337
117.586
276.436
299.811
276.957
288.543
268.288
114.001
299.357
141.958
304.423
119.6
151.023
300.659
295.549
110.418
251.664
277.506
300.169
221.512
300.772
257.609
92.4937
79.6779
105.081
297.926
80.7006
305.876
94.9343
110.769
300.962
237.539
98.5767
85.2226
149.703
78.0964
290.674
149.322
87.4365
267.01
86.1337
295.96
94.7367
82.2563
295.413
121.738
298.283
121.921
291.065
82.8525
111.45
307.022
115.557
300.978
306.051
95.3228
88.8819
88.2974
82.9847
288.769
213.603
88.4256
300.048
287.745
146.894
299.455
139.779
107.477
301.364
113.719
296.602
87.2754
142.007
285.812
223.439
147.229
263.486
112.663
301.281
179.845
147.265
90.7448
287.936
309.619
120.553
97.38
82.5011
75.8763
300.275
254.56
193.593
74.8448
100.971
301.58
288.957
299.412
143.389
300.318
120.538
131.11
99.2362
299.532
292.379
82.9669
283.673
119.828
197.124
101.994
81.4035
103.076
83.5261
295.321
104.297
108.093
147.363
300.562
305.591
74.6397
82.0712
173.667
120.987
187.073
299.281
156.682
119.002
88.6647
299.242
300.532
289.03
100.389
270.019
139.37
312.386
104.949
249.76
298.377
128.421
300.991
83.4513
172.348
175.711
161.103
228.273
291.858
301.598
104.236
235.009
209.292
196.779
154.827
148.068
78.0469
95.1078
300.098
82.6222
293.83
129.723
212.065
300.304
302.192
172.729
289.529
301.781
109.223
113.006
127.005
108.984
204.532
191.667
114.59
85.6263
113.161
308.044
79.9733
142.223
179.961
233.277
300.697
107.201
125.992
296.701
129.883
109.33
193.16
288.267
206.196
77.8165
77.7871
145.241
115.23
165.479
237.162
285.114
127.622
301.36
81.0722
147.972
103.725
113.069
299.812
97.1005
99.8742
97.0086
299.494
289.541
295.183
294.937
301.074
300
87.7547
175.017
161.338
286.331
103.729
276.904
284.724
80.3681
298.532
230.369
166.668
300.717
296.929
113.536
204.49
257.002
83.396
115.49
188.497
97.3377
99.9711
223.591
303.005
128.039
296.848
98.5954
261.196
274.849
81.0778
156.578
120.775
283.746
295.494
107.525
194.194
167.268
284.847
124.081
306.952
262.71
239.548
96.4235
290.017
128.39
107.967
122.492
287.697
291.166
96.0617
111.144
292.636
196.323
85.186
299.985
106.316
281.458
99.0939
271.813
165.063
121.906
81.6824
108.57
300
235.967
299.149
99.1341
162.892
299.263
92.5032
88.0565
128.134
263.292
300.704
301.274
298.628
94.0185
91.6738
126.177
110.291
149.897
84.1331
77.9211
240.683
88.2299
189.636
102.301
257.041
99.1379
264.876
297.68
116.969
300.72
238.214
299.414
119.791
305.342
97.3525
284.363
103.836
280.189
80.0082
107.959
78.7999
188.231
131.372
87.5996
124.613
279.224
300.401
294.26
156.621
120.012
271.343
243.358
290.97
299.961
305.322
111.709
88.347
259.933
135.818
78.7119
168.042
79.5573
152.024
299.387
228.545
281.762
195.808
132.435
97.0987
85.4472
251.03
105.966
100.411
302.374
230.706
311.315
262.827
125.675
300.372
215.676
299.275
125.274
93.1662
296.949
267.899
107.767
296.648
307.819
85.1211
110.215
77.7607
311.087
132.536
100.501
299.066
239.499
99.1523
300.583
147.99
287.288
95.825
75.2357
124.817
80.9223
79.9739
249.705
77.9467
79.9273
116.28
300
193.867
242.996
116.654
287.34
297.705
300.119
105.216
240.997
126.982
293.373
84.4549
103.979
111.571
111.071
121.061
84.1445
115.941
82.5299
243.641
105.199
300.832
211.123
117.31
108.239
88.0284
223.583
106.81
300.693
105.461
170.851
92.6163
300.95
301.073
86.2239
121.963
89.7719
195.062
81.6376
134.735
124.878
296.765
201.387
301.017
281.563
96.3359
79.7246
122.442
100.647
299.979
301.845
295.365
159.652
131.4
306.424
289.71
80.1525
79.515
113.061
225.524
299.988
122.528
300.114
79.9423
83.5838
107.689
119.281
89.044
143.105
274.436
287.554
301.464
257.993
117.785
109.514
211.65
79.2006
181.169
217.863
176.07
110.959
159.243
299.889
169.822
85.8088
75.0084
277.795
275.192
164.835
83.0358
120.07
170.5
103.578
191.324
129.568
112.173
277.747
297.545
280.29
294.385
107.959
299.288
271.323
302.845
122.582
86.1327
297.416
140.263
302.036
89.3146
73.029
79.9176
122.149
105.9
298.526
101.96
156.081
301.038
265.748
275.687
285.891
110.992
266.155
119.38
82.8236
101.139
79.8742
282.394
96.4651
246.485
306.046
98.9504
291.736
85.0522
239.504
86.9642
252.425
277.753
178.107
175.169
164.22
93.8021
293.98
305.867
82.3752
296.395
81.1331
101.688
154.651
166.665
263.82
308.378
299.346
295.941
83.4775
257.035
300
80.3258
114.366
155.893
301.065
100.002
256.038
115.372
122.002
97.7483
302.533
126.203
298.067
288.427
83.7003
268.257
288.151
220.684
147.713
280.384
299.857
300.924
306.127
79.4245
294.801
271.545
251.379
83.7282
281.448
297.151
99.4315
78.9565
79.3406
82.6122
275.4
80.315
110.501
119.338
301.424
157.919
88.3762
301.072
299.445
301.067
297.567
112.168
118.829
296.831
299.861
99.5721
130.756
77.6669
99.6845
278.141
287.362
157.093
289.128
77.5081
300.299
296.857
301.125
300
81.5112
99.1493
121.06
100.845
222.536
212.036
108.718
147.807
165.187
108.418
101.681
165.909
88.4039
301.042
260.913
98.4927
121.843
115.506
164.164
299.436
74.5304
110.749
294.805
301.935
283.995
85.2984
103.04
162.76
105.365
109.857
116.345
306.936
299.447
299.956
300.017
266.489
308.387
299.128
295.252
278.121
172.663
108.519
298.587
120.833
300.969
284.686
191.016
270.94
96.9477
254.698
294.264
122.74
104.514
300
82.4927
250.877
252.298
299.144
102.304
110.155
285.288
235.327
179.478
91.7188
297.415
121.755
300.708
119.178
107.223
293.044
253.577
273.714
306.442
116.979
236.123
139.661
123.132
300.409
140.382
273.684
118.285
247.019
104.152
114.21
163.549
81.68
254.236
299.552
272.072
240.473
301.894
187.349
166.427
80.7744
229.235
89.9393
285.272
301.021
301.018
77.7322
159.134
300.96
152.689
111.839
97.6533
110.396
129.506
103.658
81.4383
126.249
294.091
172.878
142.465
300.221
138.473
236.353
167.787
87.1026
123.772
299.51
130.257
300.947
299.318
114.975
85.2194
156.441
300.935
111.579
89.5494
266.744
122.201
301.005
97.183
184.872
304.222
300.885
301.178
260.447
299.072
107.577
85.594
301.375
280.489
110.776
299.43
106.777
196.817
120.292
170.975
149.002
150.833
295.542
108.822
299.544
83.7925
169.169
110.177
116.337
300
300
85.6656
285.39
106.638
108.639
301.66
106.839
150.856
99.017
121.217
74.5456
113.585
169.195
292.409
93.2199
102.786
134.859
101.714
81.763
309.132
92.3467
300.434
156.508
297.07
274.575
152.008
302.094
301.384
292.744
118.928
294.342
290.917
105.736
137.462
300
301.469
214.355
85.8719
294.116
300.144
122.771
301.022
296.58
300.292
300.679
121.204
138.834
298.464
127.387
257.101
163.197
293.175
306.829
295.635
74.1542
110.306
266.919
282.172
299.156
172.405
83.5213
297.315
96.1589
294.7
172.575
184.144
299.676
195.213
300.871
164.876
158.232
256.978
164.955
283.116
108.18
299.996
124.138
237.777
91.2553
109.541
296.631
300.039
300.505
83.7673
104.444
274.801
262.022
129.859
301.622
260.033
265.853
146.959
96.4757
290.446
207.71
300.51
115.486
298.858
289.285
81.4426
245.424
94.6562
149.052
301
120.14
268.292
285.224
118.82
271.319
168.254
105.419
276.494
105.327
167.949
294.355
294.091
260.129
274.727
301.496
96.5101
106.67
286.694
135.974
147.912
78.465
104.856
113.706
81.3446
89.3955
222.927
299.329
266.272
90.0105
137.182
80.737
203.872
99.1163
261.27
184.481
135.354
84.3208
97.653
299.229
271.952
118.995
102.986
286.069
74.7111
300.27
300.869
122.018
299.428
300.838
83.3137
79.6031
300.306
179.222
88.0849
119.965
96.9342
185.802
129.209
163.325
219.824
90.7271
108.396
98.0571
102.055
154.577
157.172
92.6651
277.715
83.8623
300
116.227
106.64
96.4783
171.525
292.113
83.8598
121.817
81.5337
110.597
207.287
75.5998
301.624
115.663
98.2941
231.954
141.352
194.075
98.9417
102.496
239.492
274.868
107.21
294.525
140.35
163.289
301.061
87.4527
94.317
83.3953
178.525
85.1285
86.7724
118.077
70.5146
75.3264
300.308
299.253
299.175
115.361
267.673
301.37
103.743
298.972
138.966
107.11
228.717
167.35
84.4064
292.063
301.012
104.232
102.76
113.064
78.488
299.943
297.35
260.179
100.795
285.598
104.281
105.336
297.923
114.179
205.706
111.406
307.769
140.614
301.358
120.906
130.587
120.377
115.805
261.127
142.154
300.089
297.988
293.894
297.906
120.501
128.302
98.2976
300.161
306.607
302.731
93.8683
103.543
187.763
183.371
110.002
97.9968
277.126
172.799
257.436
286.179
299.996
243.158
162.295
299.614
301.333
287.037
113.021
299.892
258.2
238.657
277.86
301.048
74.6674
74.1129
96.1138
260.716
97.844
110.478
167.927
80.34
287.789
297.678
296.314
178.037
171.124
75.8923
299.591
78.88
177.921
300.994
187.789
299.277
121.685
303.07
123.372
122.918
304.771
292.229
79.4921
116.017
75.0183
76.3536
239.985
163.323
302.744
282.087
299.999
85.9043
300.906
82.9919
169.904
87.7076
82.283
89.7388
94.1157
259.506
252.4
269.59
118.577
125.112
135.708
202.852
300.722
272.418
238.166
126.415
291.844
206.808
296.15
97.3376
273.647
145.201
104.533
296.258
301.533
118.586
93.8273
301.902
300.938
103.986
121.674
293.216
161.274
162.586
300.545
288.054
246.788
180.776
123.248
249.941
297.097
84.487
244.902
130.923
133.223
119.698
225.817
134.61
137.468
301.692
119.7
286.946
110.762
289.393
285.615
279.569
83.6555
84.0158
140.678
76.0102
111.986
108.65
92.5461
142.257
176.81
81.1163
110.407
283.967
138.717
127.721
305.543
221.417
109.428
270.001
301.843
109.806
224.752
253.383
301.4
202.13
272.102
103.511
108.238
287.206
301.045
299.916
85.9345
163.589
296.887
141.609
280.735
269.549
128.229
83.299
80.8191
115.858
299.327
107.658
106.053
85.2103
299.956
300.782
164.5
299.883
176.359
86.3917
178.272
300.741
114.934
301.074
147.664
189.724
77.7349
87.5557
299.485
124.353
299.929
302.133
104.294
82.8288
120.92
108.9
289.457
80.445
108.618
299.997
205.263
296.769
87.0855
293.628
277.858
199.513
162.791
91.2774
78.5353
106.424
274.988
301.013
250.734
78.5945
146.076
112.835
190.652
95.8587
129.119
156.149
100.613
301.068
292.525
105.576
108.654
96.6901
97.4918
121.403
284.569
281.31
109.292
152.099
273.428
121.795
299.37
102.988
119.164
260.364
300.832
137.028
74.4226
77.7285
114.697
119.27
134.464
97.9813
108.504
86.6935
136.009
78.0776
78.1318
261.849
300
78.4185
87.7618
262.838
103.506
106.6
103.462
105.838
82.0755
301.307
95.5319
86.4907
300.8
124.854
284.729
299.967
299.827
119.607
269.543
243.417
300.869
304.193
301.622
298.443
124.948
298.128
155.948
107.144
166.899
120.466
108.767
191.405
290.039
119.282
108.254
300.762
147.553
91.8691
96.9605
118.179
80.3141
235.116
122.851
95.665
104.87
183.657
84.0324
299.19
299.49
219.951
89.238
297.382
300.197
269.831
301.717
95.1059
124.388
242.265
178.684
83.7643
137.728
272.076
238.525
108.3
94.6637
71.7311
114.943
83.7692
97.5353
300.971
83.0853
98.9612
75.1168
292.707
261.347
97.7676
299.41
89.1437
104.787
88.9424
79.4734
246.637
187.192
119.032
301.058
295.988
300.978
97.7802
220.499
108.293
127.657
130.413
267.389
94.5338
116.59
281.315
100.81
301.913
117.68
166.905
98.6827
297.313
74.6219
220.661
106.482
191.14
92.8945
79.5176
301.049
297.429
258.976
301.05
90.7157
78.1639
78.101
115.452
255.089
82.0846
104.474
300.966
74.7083
259.546
191.901
212.903
186.825
86.2606
196.573
93.473
300.015
116.28
299.908
298.744
77.5342
118.673
110.559
128.415
299.367
297.75
99.8631
275.234
106.526
81.2609
301.747
116.792
225.14
276.737
286.651
117.255
138.901
300.685
212.503
81.9669
260.991
113.196
98.9892
215.869
86.5024
299.959
135.691
297.753
122.421
100.57
249.666
97.4943
148.743
300.413
288.008
97.6441
109.084
299.347
83.1398
287.627
300.433
297.076
124.959
107.431
133.064
289.749
278.888
277.256
80.9209
96.85
223.56
247.699
103.325
113.927
86.3468
301.053
289.689
284.919
143.888
91.9992
111.786
250.091
195.203
97.3754
261.06
78.9985
235.498
148.086
128.105
189.666
157.525
95.2241
260.034
143.646
103.538
125.986
166.598
173.716
81.1993
83.3039
176.1
255.837
89.6072
249.925
295.492
290.649
125.175
284.209
300.905
98.821
121.91
288.557
279.599
82.11
104.251
78.9296
299.568
287.269
293.653
117.544
78.1069
83.0122
87.9123
97.3543
103.979
144.745
152.67
261.845
298.724
207.655
80.8689
215.797
292.606
88.5119
116.146
106.537
79.5886
144.76
259.341
268.774
208.992
182.447
218.148
273.36
264.808
300.913
107.157
265.182
289.059
299.708
250.454
288.852
298.352
285.379
85.9771
104.224
79.1221
84.3172
82.0132
301.013
98.1309
190.084
87.9334
162.01
79.8344
87.7575
246.301
96.5958
110.763
151.215
299.021
280.176
80.6818
78.6973
293.168
138.643
298.47
84.6813
115.82
257.09
130.819
201.95
130.788
296.482
292.649
300.742
192.826
87.7325
95.2772
308.815
113.108
97.1301
130.104
300.832
82.768
205.812
191.49
183.025
114.308
166.358
284.787
92.1021
86.8837
89.4119
106.385
91.4972
180.742
92.9036
108.194
103.394
98.5106
303.443
96.9803
300.434
306.848
159.354
107.817
126.125
286.202
262.726
299.836
179.51
246.731
104.128
117.186
279.99
127.836
300.961
291.793
79.9074
246.043
87.6651
301.919
101.924
91.8073
300.132
301.074
278.39
301.044
85.1001
299.869
260.505
119.066
263.208
224.125
110.007
242.419
294.991
79.9403
156.217
111.008
300.677
120.226
79.2102
217.728
203.061
272.521
213.324
299.53
86.9799
129.623
81.8511
165.485
114.252
114.061
172.67
98.0161
178.762
298.84
145.268
296.719
267.071
259.627
138.106
231.203
183.373
121.547
133.708
78.8258
82.5643
289.934
114.902
248.408
240.697
300.7
138.878
108.755
230.769
83.7827
78.4277
104.914
84.248
112.144
79.787
300.616
202.32
110.172
111.124
239.688
85.4446
103.836
125.174
299.185
106.169
88.7349
291.723
292.573
96.5985
121.475
85.8176
124.431
140.909
121.61
200.279
98.8205
118.607
83.8079
84.9568
230.714
300.423
115.097
170.533
105.527
300.513
186.155
98.9453
147.421
212.267
300.983
219.19
119.297
109.666
107.239
153.258
300
74.4307
94.9469
298.172
102.03
79.3121
83.6481
257.609
300.379
298.803
299.977
299.922
91.441
280.745
118.436
148.021
203.834
86.4418
162.158
202.08
143.717
301.489
286.096
112.358
253.227
123.813
182.401
110.567
300.774
240.793
99.1174
103.691
136.475
193.205
111.54
299.42
137.579
290.472
126.013
130.451
299.659
102.613
300.852
143.713
80.3256
84.2234
109.205
124.733
79.1395
109.255
80.2026
282.543
82.0048
75.7229
109.352
103.104
253.041
299.436
82.6485
118.014
297.695
98.8948
77.4372
89.6776
120.492
290.349
172.101
122.852
298.053
301.624
210.045
132.281
98.9581
136.056
228.193
219.548
86.4428
132.485
119.894
102.974
185.459
227.95
77.7276
135.727
170.348
292.019
114.424
266.898
113.008
300.985
119.121
226.756
271.461
306.244
201.118
290.02
297.283
87.2986
253.183
269.252
280.615
301.077
99.2321
186.983
119.765
200.154
178.265
261.623
80.4727
273.806
100.499
85.2419
301.085
298.453
286.487
111.169
266.73
86.3987
300
103.043
249.056
118.848
110.281
300.474
135.159
196.366
86.0744
100.336
212.015
202.943
75.2173
105.585
91.3322
221.638
124.805
155.21
300.638
301.045
162.298
298.726
98.3735
254.593
96.7175
258.932
87.1802
233.065
114.738
96.0132
79.527
100.919
298.458
302.296
127.386
87.1243
299.294
89.3952
243.83
121.359
112.372
112.035
92.2891
92.3184
105.906
299.742
190.586
117.02
209.319
298.97
150.705
293.537
114.781
103.632
186.206
299.949
114.549
144.519
292.971
237.694
299.997
94.0479
286.504
286.916
292.116
112.883
289.964
299.537
80.7079
154.307
300.75
115.721
299.433
301.373
86.8335
301.22
86.5571
298.81
130.506
229.258
91.4351
95.4133
210.371
224.411
285.396
161.393
81.1252
298.725
114.64
133.612
108.436
114.957
300.371
90.7218
257.113
292.305
122.431
211.017
135.082
214.706
199.668
300.025
186.486
104.046
300.284
225.791
176.462
242.781
89.8549
109.383
306.744
288.781
299.298
99.8445
300.979
99.2313
110.139
190.564
281.978
143.509
112.411
269.597
282.615
108.58
222.915
93.0128
112.408
117.681
191.349
299.587
70.8375
301.211
95.2794
73.3224
123.561
111.663
296.991
82.6567
148.551
189.463
89.1598
93.8049
282.102
164.033
74.1902
278.07
187.15
108.881
224.386
302.307
300.45
299.711
113.323
255.323
227.654
134.656
85.2006
106.244
295.116
206.348
274.146
167.437
118.306
77.6564
107.702
214.357
116.905
271.144
145.894
269.875
74.8986
299.927
208.77
89.1773
94.2358
104.541
94.1667
282.886
187.696
284.842
83.6983
118.526
119.767
102.152
247.695
141.35
301.025
287.762
186.643
94.3018
119.999
137.109
92.8334
108.5
296.579
258.987
99.3584
245.499
300.337
85.7938
138.833
299.599
110.035
95.3444
164.771
89.3632
121.576
105.028
268.86
294.822
291.514
301.619
88.0073
301.461
272.876
296.217
298.474
121.241
300.769
262.697
224.672
162.757
86.0501
87.4059
85.018
262.526
212.393
298.562
300.125
123.199
220.141
136.613
295.77
92.7199
123.582
156.99
215.467
301.376
189.408
113.615
120.381
106.097
109.214
84.881
94.1375
168.847
178.526
283.89
205.865
134.975
172.235
284.291
112.123
113.888
94.8711
154.043
297.807
199.611
124.704
91.7735
290.964
126.428
115.644
299.241
308.393
105.714
113.362
119.65
297.339
300.938
88.1854
141.069
115.608
115.03
120.657
89.3481
110.011
300.676
136.675
271.754
270.457
214.195
151.683
300.443
102.875
290.818
234.506
77.2549
267.496
191.792
259.738
300.753
102.398
301.344
301.012
296.709
84.2264
297.866
248.342
126.843
124.655
115.738
203.72
299.973
299.735
120.625
80.74
129.971
118.34
301.777
201.212
274.834
298.747
289.663
107.014
262.523
300.995
278.307
96.5111
300.938
194.116
123.904
99.6226
299.38
123.71
124.075
299.638
87.2674
179.407
301.048
192.004
116.797
299.959
78.0008
298.734
127.643
236.604
151.474
286.491
119.138
77.3462
157.516
98.9684
138.698
117.89
266.133
145.099
103.014
287.782
90.895
146.305
110.773
257.288
168.101
119.456
80.4239
283.314
227.935
154.382
276.1
98.9931
120.8
140.887
104.945
70.9986
86.1618
299.436
139.59
150.748
262.815
268.479
232.527
296.555
126.863
287.172
124.388
251.261
224.195
294.863
103.211
91.2834
285.971
247.612
95.633
232.789
77.3891
301.036
256.241
111.232
94.5521
183.084
281.555
296.641
261.342
121.663
94.8006
87.7005
75.5403
242.294
77.7033
280.219
280.734
255.33
132.755
271.509
306.793
96.9373
251.969
214.803
294.011
297.746
150.5
283.282
295.837
299.956
247.56
297.646
92.0189
257.053
97.415
256.94
147.879
95.9303
247.852
133.828
118.798
99.4431
226.628
126.651
148.311
74.1044
274.354
226.918
125.298
300.916
79.0107
298.534
299.699
299.927
80.7427
239.963
214.718
116.596
84.6973
111.02
301.018
261.404
299.799
292.134
102.633
87.4076
144.134
128.367
93.6338
240.586
117.066
209.959
94.8593
131.83
224.202
252.091
94.6619
84.0913
246.075
111.323
146.131
138.775
218.682
179.141
271.972
228.037
284.04
136.255
156.716
82.4895
304.711
287.492
208.602
241.329
90.0735
259.676
290.318
128.185
172.06
293.551
180.57
85.7007
239.642
118.419
106.335
78.5163
254.116
299.707
119.455
97.8713
71.0741
77.6543
76.7874
74.7218
72.5607
277.744
289.768
262.332
287.857
306.206
267.68
93.8777
102.339
115.274
133.367
123.911
104.864
85.5184
123.671
266.529
103.782
110.476
224.091
160.415
150.682
85.2264
125.288
103.471
229.021
119.724
78.1593
301.212
89.5359
290.979
255.031
88.8744
81.7335
110.3
276.166
299.812
299.904
110.678
295.08
168.057
103.751
111.96
162.258
179.339
299.647
301.009
101.62
92.5399
289.735
278.513
104.025
299.519
292.102
103.767
161.182
301.051
290.052
230.204
123.101
139.424
286.379
153.797
268.61
136.537
291.316
123.076
299.867
175.093
84.6496
301.473
135.796
134.099
86.5241
180.74
109.285
122.033
135.071
167.721
193.628
157.266
301.078
108.475
294.791
293.842
109.898
171.696
290.77
281.38
298.297
158.139
78.8485
120.34
118.543
200.101
102.873
249.612
170.498
222.015
301.637
255.989
117.46
86.3945
124.233
287.407
174.551
93.3714
88.7063
124.469
257.807
284.229
118.154
136.759
120.572
229.324
244.905
110.15
249.884
113.144
107.881
300.906
293.933
127.097
163.891
295.595
171.245
296.386
126.704
265.026
130.816
299.235
213.964
263.942
299.667
235.983
296.179
98.8453
123.885
114.555
74.9513
174.353
110.22
197.957
88.44
153.497
244.312
136.959
214.987
204.95
286.98
300.497
293.845
301.046
298.286
300.836
111.551
93.6151
199.318
297.72
101.547
109.482
114.314
134.369
81.8597
100.387
103.013
283.642
296.92
262.485
163.404
119.333
85.9735
115.565
300.988
236.918
171.496
88.5294
297.689
107.636
184.936
297.142
112.356
108.516
90.4103
85.3593
122.58
79.5967
160.223
79.1395
300.781
242.422
131.625
300.655
309.82
284.847
299.134
297.689
283.433
301.021
87.0633
219.197
296.324
91.5585
295.446
298.094
227.178
236.811
272.318
213.136
131.448
246.479
83.247
97.1803
99.6336
161.347
124.599
98.4785
76.635
101.907
267.76
109.571
165.923
235.461
101.512
81.1476
109.868
83.2573
103.903
210.086
73.0136
109.961
78.683
136.517
184.004
112.631
189.671
230.364
95.3691
110.85
300.703
300.961
175.269
170.633
274.894
212.965
259.553
114.666
126.88
79.9856
301.87
137.841
303.108
177.199
116.449
275.233
244.441
185.802
134.339
298.556
272.693
95.1633
175.998
117.249
267.304
301.008
228.841
289.892
296.741
153.597
101.48
94.2485
72.1959
294.929
247.219
290.779
128.949
122.206
298.877
306.303
109.173
300.804
148.707
298.261
97.8173
110.548
273.197
107.147
296.699
95.3032
162.225
250.472
156.543
293.273
231.354
143.956
222.05
98.5066
123.533
106.617
114.951
269.738
274.182
268.14
299.824
301.429
75.2333
79.537
95.656
196.447
155.778
235.375
171.481
299.855
220.197
78.9989
109.496
281.753
84.6531
158.209
284.817
220.669
116.936
263.338
300.536
94.5097
298.47
151.663
108.586
199.7
292.295
79.615
149.746
298.274
293.655
309.691
223.617
299.99
135.388
108.733
118.351
231.863
188.982
259.318
95.862
124.684
116.154
118.042
290.441
301.45
113.582
295.361
138.636
129.343
162.307
81.5045
91.9997
178.706
115.918
247.155
294.896
284.236
115.76
190.227
271.867
91.4548
88.1186
126.023
196.181
101.559
145.496
155.869
78.8563
292.804
125.76
299.99
74.2072
298.557
191.359
307.277
171.336
119.944
296.966
288.195
290.437
109.459
137.875
159.987
263.227
81.734
244.473
126.018
100.19
296.853
290.588
240.891
84.7321
117.583
83.6529
149.787
293.102
91.2559
192.214
296.458
283.688
263.616
249.108
294.647
109.555
301.069
261.578
300.686
169.125
114.274
83.1788
263.81
286.474
110.931
263.95
302.662
154.274
212.465
117.365
263.117
300.467
114.325
127.706
252.105
271.287
261.209
179.854
290.43
94.7334
74.9767
188.866
244.343
170.437
104.874
300
114.873
282.167
298.85
86.0437
205.656
244.195
123.501
170.295
93.0745
86.7354
115.071
251.451
101.318
210.848
101.836
177.187
118.368
223.749
140.097
94.362
140.016
183.131
263.439
177.225
122.241
120.387
89.7637
88.8967
105.609
295.026
103.511
299.988
299.814
231.857
300.378
113.092
78.5696
281.152
185.396
131.631
280.282
253.493
84.978
299.471
233.956
85.1564
274