/*--------------------------------*- C++ -*----------------------------------*\
  =========                 |
  \\      /  F ield         | OpenFOAM: The Open Source CFD Toolbox
   \\    /   O peration     | Website:  https://openfoam.org
    \\  /    A nd           | Version:  8
     \\/     M anipulation  |
\*---------------------------------------------------------------------------*/
FoamFile
{
    version     2.0;
    format      ascii;
    class       volVectorField;
    location    "0.0001";
    object      U;
}
// * * * * * * * * * * * * * * * * * * * * * * * * * * * * * * * * * * * * * //

dimensions      [0 1 -1 0 0 0 0];

internalField   nonuniform List<vector> 
23640
(
(-748.378 2252.8 0)
(-348.784 2702.89 0)
(385.039 297.285 0)
(-31.7882 153.769 0)
(466.207 2742.75 0)
(-234.993 895.219 0)
(-137.638 2921.37 0)
(-5.66192 2132.72 0)
(-229.933 2444.52 0)
(1357.01 599.002 0)
(-37.5511 475.499 0)
(972.263 2686.18 0)
(257.848 2673.17 0)
(486.497 2736.97 0)
(-443.437 470.01 0)
(-188.772 857.842 0)
(1094.31 2203.85 0)
(-79.01 1144.86 0)
(43.2129 797.433 0)
(-1470.28 2307.47 0)
(-91.2511 563.065 0)
(356.896 157.411 0)
(-88.0291 579.519 0)
(129.62 449.483 0)
(-392.073 2592.79 0)
(307.042 2868.33 0)
(-101.763 2278.27 0)
(867.151 2510.66 0)
(1458.34 1874.48 0)
(594.103 2506.6 0)
(143.028 2684.26 0)
(-2.06676 2.08136 0)
(-95.2567 556.535 0)
(-1323.56 2460.62 0)
(-1795.63 1811.08 0)
(-447.129 332.11 0)
(1066.59 2250.35 0)
(983.344 2436.25 0)
(793.027 485.406 0)
(86.2275 327.293 0)
(1292.03 2476.23 0)
(-230.789 2425.14 0)
(452.545 2697.89 0)
(-1049.29 616.716 0)
(-25.4164 93.1727 0)
(1006.01 1829.82 0)
(706.498 2450.9 0)
(187.595 2661.17 0)
(1391.12 623.659 0)
(92.1499 2065.12 0)
(3.62649 8.35557 0)
(-49.2653 1105.49 0)
(-580.644 325.603 0)
(-1137.57 2222.67 0)
(-28.6656 150.666 0)
(350.775 91.4703 0)
(-548.271 1428.62 0)
(-315.077 2696.12 0)
(-5.83457 2837.67 0)
(55.5457 134.224 0)
(90.0878 2674.4 0)
(-630.105 2040.19 0)
(46.3956 274.595 0)
(-50.8456 1056.93 0)
(-370.286 2755.14 0)
(-53.7636 1065.07 0)
(-117.267 801.148 0)
(-424.739 2628.68 0)
(58.4467 1210.09 0)
(493.455 2705.45 0)
(67.6865 252.9 0)
(-1293.81 2465.51 0)
(-146.281 761.011 0)
(-1203.97 2029.4 0)
(194.182 851.203 0)
(-4.01867 3.99778 0)
(-129.012 25.2314 0)
(295.711 2692 0)
(43.6097 785.756 0)
(-40.8442 294.302 0)
(932.268 1782.53 0)
(1759.53 1660.54 0)
(58.5072 2626 0)
(108.732 2661.12 0)
(-317.396 2772.55 0)
(-899.716 306.094 0)
(-51.3038 1115.21 0)
(66.1784 223.162 0)
(-160.421 594.4 0)
(-404.306 451.105 0)
(28.1385 2881.85 0)
(-320.522 2678.06 0)
(-1137.9 948.006 0)
(-124.02 766.238 0)
(12.651 1126 0)
(42.4421 2646.07 0)
(-51.8635 1027.11 0)
(401.581 146.82 0)
(-33.6342 2124.83 0)
(-1108.64 736.769 0)
(1939.97 1338.09 0)
(-1146.34 2223.07 0)
(115.801 384.071 0)
(1179.99 2304.28 0)
(1673.53 1869.81 0)
(1039.13 2404.52 0)
(50.7987 174.08 0)
(-1200.01 2285.79 0)
(-568.582 2790.57 0)
(-1.96609 2329.39 0)
(255.609 2669.98 0)
(-141.736 759.497 0)
(233.492 2783.76 0)
(1223.47 2588.88 0)
(1377.42 1154.01 0)
(-1404.33 2163.51 0)
(-452.709 414.328 0)
(-369.986 2647.2 0)
(-818.024 2245.59 0)
(565.562 2555.44 0)
(72.4143 250.873 0)
(-2.85132 32.4319 0)
(368.435 160.483 0)
(6.18835 24.6264 0)
(1040.89 2248.1 0)
(96.3244 358.229 0)
(3.06855 6.25867 0)
(1839.03 1332.5 0)
(-256.833 966.298 0)
(1041.45 2585.52 0)
(206.396 2569.29 0)
(1882.94 1646.43 0)
(199.35 2696.54 0)
(-715.286 2285.75 0)
(-1150.28 2380.45 0)
(43.2151 140.993 0)
(-75.3959 495.383 0)
(-405.71 2608.18 0)
(36.2561 488.332 0)
(-59.8038 970.943 0)
(-36.8182 2248 0)
(-526.438 1352.77 0)
(-153.824 777.96 0)
(-32.4908 473.53 0)
(168.283 742.702 0)
(-193.082 2571.84 0)
(-55.6938 420.795 0)
(86.4002 346.961 0)
(61.0238 2858.21 0)
(129.432 1093.23 0)
(159.031 1968.25 0)
(126.979 417.893 0)
(317.397 2703.14 0)
(-15.5024 226.579 0)
(1439.83 2182.69 0)
(-1242.21 2302.91 0)
(-123.324 2915.79 0)
(-545.883 2748.78 0)
(111.532 806.225 0)
(-90.785 2286.42 0)
(-339.88 363.891 0)
(-810.982 316.203 0)
(-465.317 323.166 0)
(-81.2935 852.157 0)
(1430.27 2134.43 0)
(1514.16 2115.63 0)
(60.6962 205.155 0)
(-1449.81 1569.09 0)
(50.6398 177.161 0)
(1885.87 1641.68 0)
(196.678 2674.9 0)
(1430.67 1109.47 0)
(201.092 1002.63 0)
(-603.085 2793.36 0)
(53.4484 227.562 0)
(-54.5449 218.112 0)
(1032.4 2575.67 0)
(1511.22 1215.34 0)
(-41.3851 289.798 0)
(-539.515 2549.11 0)
(-21.355 93.1365 0)
(437.22 124.706 0)
(-412.068 2608.09 0)
(-939.204 2564.15 0)
(1224.03 2024.07 0)
(282.948 1615.61 0)
(-823.303 2378.57 0)
(-1391.08 1206.77 0)
(-70.4371 173.066 0)
(-924.115 2546.09 0)
(-405.698 2217.03 0)
(63.0055 456.271 0)
(-3.62584 45.2295 0)
(298.797 2701.36 0)
(1337.97 2043.38 0)
(79.223 303.332 0)
(1659.36 1821.15 0)
(-399.757 912.315 0)
(694.991 250.233 0)
(1351.51 1869.89 0)
(-10.0826 646.238 0)
(1026.48 737.272 0)
(997.588 2432.09 0)
(-216.285 2423.93 0)
(-71.5003 724.355 0)
(-214.759 3026.2 0)
(592.494 230.449 0)
(-92.3186 573.155 0)
(1687.7 1133.35 0)
(56.6222 212.633 0)
(477.729 2736.91 0)
(-458.715 2648.62 0)
(261.919 2534.68 0)
(-196.064 2812.79 0)
(77.9346 235.561 0)
(-83.9849 2541.75 0)
(200.96 2670.15 0)
(-1458.45 2344.69 0)
(-70.8096 1303.04 0)
(-1349.07 986.925 0)
(200.394 2573.09 0)
(54.3063 474.777 0)
(-16.3801 642.091 0)
(1002.08 2648.12 0)
(-131.43 492.176 0)
(160.731 2808.71 0)
(-387.479 2860.04 0)
(-4.3421 28.7728 0)
(-1331.76 907.812 0)
(36.9368 2876.71 0)
(-686.424 2310.83 0)
(-1327.08 2032.32 0)
(1437.04 2290.55 0)
(-477.537 2676.06 0)
(-531.803 2753.15 0)
(1739.41 1694.92 0)
(70.7038 263.453 0)
(-74.4153 2542.66 0)
(72.4368 2844.93 0)
(1117.94 1620.28 0)
(1936.55 1365.3 0)
(-1107.76 957.215 0)
(1286.78 2451.21 0)
(-218.315 2396.88 0)
(-27.8513 166.273 0)
(1223.37 2208.89 0)
(498.811 2139.98 0)
(514.66 151.712 0)
(-3.43677 289.923 0)
(103.702 374.311 0)
(52.5846 125.722 0)
(845.41 2748.3 0)
(708.624 2460.99 0)
(54.0576 223.82 0)
(-169.065 2852.78 0)
(83.077 325.839 0)
(-865.109 247.698 0)
(-1326.14 2100.88 0)
(-53.3743 174.216 0)
(-52.3101 173.993 0)
(-36.279 119.201 0)
(587.361 2610.45 0)
(1915.71 1476.07 0)
(-496.356 2817.9 0)
(1256.9 1875.2 0)
(451.417 2698.46 0)
(545.66 2319.06 0)
(-24.8715 1916.04 0)
(-144.13 2892.73 0)
(27.5422 1170.43 0)
(1526.71 1038.3 0)
(1547.81 1786.12 0)
(52.0857 168.935 0)
(-68.6815 164.529 0)
(1880.42 1261.62 0)
(-1236.58 2514.7 0)
(1213.75 2060.11 0)
(-2.35771 32.1967 0)
(9.16147 1048.09 0)
(-628.803 2786.98 0)
(86.2067 334.293 0)
(1244.99 1444.15 0)
(341.609 1620.63 0)
(-25.9559 449.017 0)
(-281.839 1596.73 0)
(767.035 1985.85 0)
(-16.2798 1564.54 0)
(368.461 633.382 0)
(22.4798 2751.21 0)
(-24.4556 455.574 0)
(-190.393 2644.38 0)
(-1130.19 2142.95 0)
(-109.989 2569.36 0)
(-80.6683 1123.51 0)
(36.9633 495.351 0)
(219.01 2315.03 0)
(1081.96 2576.93 0)
(-1172.5 2067.8 0)
(308.742 2851.36 0)
(1069.42 2110.93 0)
(-1404 1574.82 0)
(-55.1776 1034.94 0)
(-4.41206 28.4965 0)
(-285.714 2644.26 0)
(-78.9119 516.822 0)
(1530.25 1992.88 0)
(1831.78 1717 0)
(-1057.87 1998.5 0)
(-31.5175 131.317 0)
(-157.827 762.222 0)
(1303.68 2211.9 0)
(1875.1 1365.96 0)
(-53.0257 223.322 0)
(92.0809 787.793 0)
(-35.713 656.065 0)
(600.613 2295.02 0)
(-1461.39 1303.83 0)
(-773.024 261.112 0)
(14.3636 1103.98 0)
(-249.72 1160.07 0)
(864.549 2012.06 0)
(-1230.46 2518.76 0)
(-1804.64 1779.34 0)
(838.61 2533.3 0)
(-1174.04 2372.41 0)
(-1918.78 1193.74 0)
(70.8327 221.149 0)
(-167.127 2412.39 0)
(792.118 1834.87 0)
(3.53958 3.88836 0)
(-381.936 1588.6 0)
(-59.6827 2225.89 0)
(-944.218 2547.06 0)
(-601.443 2508.17 0)
(161.119 2541.74 0)
(-288.307 2649.82 0)
(598.498 169.198 0)
(1618.11 1185.21 0)
(200.701 2233.16 0)
(305.686 2853.86 0)
(-703.217 211.073 0)
(-169.696 873.042 0)
(1419.84 2205.87 0)
(3.88851 35.3824 0)
(87.8671 436.162 0)
(-53.3739 1183.44 0)
(-783.359 2067.93 0)
(890.143 2707.33 0)
(241.829 2803.83 0)
(1399.72 2333.32 0)
(-53.0572 174.375 0)
(-1901.95 1131.34 0)
(-1288.18 2168.02 0)
(-335.721 2650.26 0)
(-1788.26 1809.76 0)
(1477.94 2092.39 0)
(-406.711 2026.25 0)
(-834.313 2550.73 0)
(49.9502 273.341 0)
(50.5915 469.555 0)
(-791.422 2397.11 0)
(-61.753 540.651 0)
(-64.87 978.014 0)
(1106.44 2028.63 0)
(-109.874 2569.24 0)
(1241.52 1539.95 0)
(1603.37 1813.72 0)
(1527.46 921.928 0)
(23.9425 786.386 0)
(-583.22 2568.79 0)
(-1727.04 1238.72 0)
(166.775 629.456 0)
(1295.09 2217.65 0)
(-35.3103 646.601 0)
(1042.23 2265.13 0)
(-1290.42 2185.61 0)
(47.8231 136.997 0)
(-1192.32 717.345 0)
(-165.469 2405.12 0)
(449.363 2341.85 0)
(142.121 782.672 0)
(170.721 669.762 0)
(-96.6296 2541.61 0)
(-163.441 895.153 0)
(-13.2893 2421.63 0)
(-1219.15 2317.97 0)
(-997.523 651.823 0)
(1543.23 2091.62 0)
(91.3505 321.745 0)
(-1549.06 1733.6 0)
(-4.09617 1234.58 0)
(-234.933 661.088 0)
(-221.504 43.7929 0)
(-664.602 385.682 0)
(-1185.36 1589.27 0)
(115.393 421.207 0)
(-0.255598 40.6384 0)
(1059.96 2384.46 0)
(720.945 2464.03 0)
(-980.665 2024.43 0)
(-966.993 1035.31 0)
(32.2744 122.111 0)
(482.27 1209.44 0)
(1566.91 1843.65 0)
(346.824 2670.31 0)
(-322.073 2874.23 0)
(48.9651 155.653 0)
(1435.53 1888.87 0)
(753.867 591.753 0)
(111.952 948.022 0)
(-386.351 895.938 0)
(-6.64389 292.765 0)
(-53.3175 195.158 0)
(-422.391 2353.6 0)
(-50.7535 419.849 0)
(1234.84 2518.91 0)
(824.463 1969.42 0)
(-92.7363 2695.2 0)
(607.334 2073.96 0)
(1345.69 2391.25 0)
(-53.04 175.295 0)
(2.54071 1219.53 0)
(418.534 2836.93 0)
(-326.618 758.153 0)
(1561.8 779.506 0)
(-1543.99 1941.73 0)
(5.73696 30.3862 0)
(319.646 146.412 0)
(-64.8575 534.004 0)
(7.95897 1317.46 0)
(1226.55 2043.73 0)
(21.7571 76.6066 0)
(-57.4186 214.706 0)
(-96.0857 590.311 0)
(-20.7079 2523.03 0)
(84.4373 433.477 0)
(-1699.33 1303.92 0)
(459.232 393.496 0)
(1332.61 1559.71 0)
(58.0592 165.224 0)
(-669.523 2512.33 0)
(55.0918 266.72 0)
(368.344 236.115 0)
(-1375.82 622.443 0)
(-259.141 1822.2 0)
(-115.762 1260.27 0)
(-891.217 2033.5 0)
(1378.69 919.873 0)
(20.1264 594.706 0)
(1554.85 925.102 0)
(-0.0370699 0.105461 0)
(-90.4173 946.513 0)
(52.645 222.456 0)
(-300.284 809.164 0)
(38.6923 1298.97 0)
(-1182.02 2346.76 0)
(-10.0811 2762.25 0)
(1828.08 1708.47 0)
(-54.3657 168.888 0)
(1000.58 571.939 0)
(568.505 2126.8 0)
(-295.308 1731.53 0)
(785.802 2690.97 0)
(0.0545762 -0.00129755 0)
(666.998 514.503 0)
(555.128 2558.8 0)
(-650.392 481.866 0)
(168.754 48.2286 0)
(-1759.06 1095.44 0)
(-412.426 2145.74 0)
(148.136 2600.25 0)
(-368.406 2594.42 0)
(-32.4679 113.835 0)
(964.946 1013.51 0)
(968.974 1415.22 0)
(-767.547 1943.36 0)
(147.145 2627.17 0)
(0.883745 0.331848 0)
(1875.08 1368.08 0)
(-4.61602 31.4939 0)
(-62.1414 1529.52 0)
(-1345.79 1868.16 0)
(-225.687 2723.3 0)
(-1402.93 666.174 0)
(443.058 592.732 0)
(1664.07 1017.4 0)
(-121.757 538.903 0)
(1128.62 871.916 0)
(-131.03 2693.15 0)
(-894.721 2298.9 0)
(382.91 2353.45 0)
(1.05502 46.1491 0)
(548.458 2638.49 0)
(100.184 353.66 0)
(-204.178 2483.67 0)
(-299.474 2861.75 0)
(-1210.97 1027.36 0)
(-458.913 1608.58 0)
(1538.26 1103.68 0)
(948.556 2466.71 0)
(156.752 2633.89 0)
(-26.1832 340.453 0)
(-1550.28 1902.99 0)
(-235.066 2611.84 0)
(-57.4345 2627.56 0)
(-71.5011 2800.94 0)
(-1195.51 1640.73 0)
(1385.53 2195.92 0)
(-1153.85 2121.47 0)
(412.62 2659 0)
(914.92 1862.41 0)
(897.043 1996.11 0)
(-966.942 391.81 0)
(-936.667 291.914 0)
(-100.239 604.945 0)
(-580.389 2744.36 0)
(737.891 2709.85 0)
(1356.87 2003.36 0)
(-218.933 2391.48 0)
(-35.594 414.185 0)
(-341.312 770.432 0)
(41.3493 1313 0)
(-0.0144529 0.0393307 0)
(-339.608 321.271 0)
(59.8747 2743.37 0)
(283.825 2782.03 0)
(117.213 638.226 0)
(575.186 2266.63 0)
(137.477 775.842 0)
(-191.374 2814.49 0)
(-363.894 2874.04 0)
(-134.249 500.875 0)
(1782.2 1485.02 0)
(-101.569 200.998 0)
(-423.049 120.774 0)
(-124.568 2683.46 0)
(-645.746 361.11 0)
(1915.3 1464.74 0)
(-1220.74 2245.05 0)
(710.955 2400.79 0)
(-29.9042 873.473 0)
(-166.952 2626.28 0)
(-177.571 2459.53 0)
(423.558 2841.11 0)
(1085.42 2227.75 0)
(363.67 2692.39 0)
(-330.515 348.116 0)
(166.915 700.202 0)
(366.79 2631.75 0)
(382.937 2622 0)
(1218.65 1591.18 0)
(-477.702 2659.65 0)
(-362.006 98.9288 0)
(-1324.49 919.107 0)
(1387.47 1550.47 0)
(-538.785 2610.25 0)
(359.165 2619.34 0)
(-1056.48 888.525 0)
(-70.911 501.38 0)
(51.5212 230.828 0)
(333.306 996.486 0)
(-90.9103 392.951 0)
(-261.223 2644.99 0)
(1362.09 1845.53 0)
(-62.7784 920.562 0)
(-91.0252 592.897 0)
(190.688 1081.58 0)
(73.1328 686.216 0)
(1446.65 1411.48 0)
(836.771 466.578 0)
(0.0963689 0.10182 0)
(478.244 2746.55 0)
(-207.72 2480.45 0)
(-1115.36 2404.23 0)
(-507.651 2627.02 0)
(30.4958 789.804 0)
(386.096 179.733 0)
(-948.184 337.006 0)
(1773.84 1496.33 0)
(774.55 2453.27 0)
(16.8579 71.7705 0)
(23.1153 2537.74 0)
(-817.295 2530.8 0)
(594.792 2242.87 0)
(89.4228 777.308 0)
(154.55 586.539 0)
(24.5244 802.605 0)
(1746.47 1505.14 0)
(346.45 2864.45 0)
(67.9063 682.053 0)
(-19.0421 284.204 0)
(405.482 2580.06 0)
(1228.26 2537.9 0)
(-225.301 2375.98 0)
(-113.265 2862.03 0)
(19.4067 1087.8 0)
(-1426.97 2336.26 0)
(-796.809 2267.39 0)
(-386.96 2596.32 0)
(-1700.62 1026.02 0)
(-46.0648 425.399 0)
(19.8572 586.991 0)
(-55.3407 171.518 0)
(1836.55 1413.48 0)
(-620.424 2565.57 0)
(780.687 236.551 0)
(-994.581 1363.94 0)
(970.516 1850.73 0)
(-526.728 2781.85 0)
(121.991 642.438 0)
(565.929 2571.05 0)
(155.83 1932.77 0)
(834.919 2719.98 0)
(-435.326 2549.92 0)
(-280.783 906.089 0)
(-1111.77 1441.09 0)
(-417.527 157.548 0)
(-103.478 2539.87 0)
(1115.51 2220.19 0)
(6.26411 26.4868 0)
(-67.4696 731.839 0)
(1085.97 2576.77 0)
(-160.105 2635.09 0)
(-18.7537 280.05 0)
(-488.681 2685.78 0)
(22.9442 1136.61 0)
(682.849 2707.38 0)
(-40.8643 631.865 0)
(-258.148 2623.16 0)
(378.712 240.542 0)
(1275.87 1633.19 0)
(116.319 1782.25 0)
(-914.844 787.243 0)
(-541.449 2547.75 0)
(-1382.98 1168.04 0)
(-35.2022 133.068 0)
(43.618 2642.15 0)
(693.696 2698.64 0)
(1071.39 2374.52 0)
(436.395 396.602 0)
(-208.745 2411.17 0)
(302.611 125.62 0)
(-92.0968 383.435 0)
(108.204 2704.65 0)
(520.733 158.163 0)
(18.3588 2536.95 0)
(-41.2088 641.206 0)
(-905.638 2215.53 0)
(-1226.84 2310.88 0)
(894.837 2701.56 0)
(-952.486 829.161 0)
(-2.43533 34.2769 0)
(168.949 720.476 0)
(103.542 2847.07 0)
(-1454.14 2323.23 0)
(-74.6036 206.348 0)
(1566.07 1113.35 0)
(-120.881 531.542 0)
(406.047 2639.5 0)
(143.916 882.668 0)
(-208.901 2729.97 0)
(-1147.65 1846.22 0)
(-1412.8 2156.46 0)
(-1880.38 1162.49 0)
(169.701 57.7668 0)
(-223.476 47.5504 0)
(776.764 1825.56 0)
(0.701977 46.6659 0)
(167.397 671.71 0)
(-256.661 1318.51 0)
(-3.64089 30.894 0)
(-19.0604 2431.92 0)
(-389.43 2843.91 0)
(-733.395 726.542 0)
(-6.06272 1020.8 0)
(1096.29 2211.11 0)
(-162.198 2684.18 0)
(452.441 2712.05 0)
(-934.876 2278.22 0)
(-25.8321 336.126 0)
(53.4623 128.602 0)
(41.7889 2566.53 0)
(352.022 2618.37 0)
(1053.79 678.689 0)
(-547.714 2765.04 0)
(-1245.01 2310.03 0)
(-50.0934 154.015 0)
(-1453.85 2381.99 0)
(1006.72 1764.08 0)
(4.39351 35.9977 0)
(1484.36 1853.55 0)
(491.081 142.467 0)
(-69.0455 1328.6 0)
(467.177 2721.65 0)
(59.5761 1342.48 0)
(1191.72 2088.75 0)
(316.952 603.904 0)
(770.18 2457.35 0)
(109.196 412.738 0)
(158.798 2808.8 0)
(-0.0300784 0.0882769 0)
(-5.98262 1039.7 0)
(1484.11 2297.58 0)
(99.1358 378.852 0)
(1083.66 2351.13 0)
(-192.893 2590.06 0)
(83.4772 299.182 0)
(1241.39 1168.04 0)
(-82.5838 316.454 0)
(1158.63 1795.93 0)
(-123.605 753.621 0)
(89.0142 328.211 0)
(1729.67 1081.47 0)
(-1428.2 1257.24 0)
(-397.645 144.808 0)
(-391.665 328.912 0)
(276.401 685.916 0)
(-239.133 2713.08 0)
(-100.863 596.501 0)
(301.477 185.087 0)
(1888 1637.13 0)
(-755.688 1974.04 0)
(1535.73 1092.43 0)
(1197.91 1304.54 0)
(-1241.42 2320.19 0)
(275.976 269.109 0)
(-1381.38 1846.92 0)
(1253.36 2139.64 0)
(-1549.17 2015.74 0)
(-25.3219 177.568 0)
(13.7086 2544.16 0)
(-961.791 2469.16 0)
(47.7881 331.313 0)
(-99.8998 377.449 0)
(1254.55 2310.02 0)
(242.304 2801.37 0)
(88.5601 47.2791 0)
(1227.67 2504.41 0)
(43.6667 323.301 0)
(7.1927 2536.21 0)
(-10.386 1068.73 0)
(-591.654 2732.04 0)
(41.372 319.283 0)
(-1768.38 1052.78 0)
(1193.73 2268.28 0)
(301.861 1509.36 0)
(-877.027 2562.56 0)
(154.133 861.19 0)
(1397.28 2174.8 0)
(-566.827 2574.71 0)
(173.582 1555.31 0)
(1594.45 1828.39 0)
(179.165 2528.57 0)
(-569.752 2594.82 0)
(49.391 2515.89 0)
(1.06274 0.520689 0)
(200.222 2372.27 0)
(-1167.71 2319.06 0)
(-41.1003 1143.91 0)
(76.9036 282.394 0)
(-508.851 2623.47 0)
(-343.54 2818.89 0)
(-105.846 1352.71 0)
(-48.6149 2651.37 0)
(-51.0946 163.664 0)
(286.405 111.481 0)
(-31.0116 418.542 0)
(1085.1 2529.86 0)
(128.193 892.7 0)
(-1230.14 2337.68 0)
(416.913 709.547 0)
(591.994 2687.74 0)
(-1087.35 1839.53 0)
(394.131 2770 0)
(152.547 561.304 0)
(402.926 2648.3 0)
(-53.3138 191.911 0)
(42.1228 2605.92 0)
(-20.3985 1273.99 0)
(-698.478 258.274 0)
(-1609.79 1458.62 0)
(6.7912 21.0373 0)
(569.771 287.595 0)
(-768.585 280.95 0)
(382.823 152.004 0)
(-1.78132 44.5837 0)
(-945.181 2220 0)
(1299.2 2264.44 0)
(-1076.3 2448.68 0)
(100.989 2794.69 0)
(1008.52 1071.13 0)
(-541.768 392.798 0)
(168.719 799.747 0)
(-198.907 2622.35 0)
(1266.5 1226.16 0)
(113.332 430.307 0)
(-13.3771 353.871 0)
(-54.3285 293.682 0)
(985.075 2231.58 0)
(-82.3703 304.425 0)
(-191.055 2239.48 0)
(-573.81 1248.18 0)
(-233.587 2528.38 0)
(259.015 2664.44 0)
(1651.21 1038.79 0)
(68.4777 183.846 0)
(-225.554 2709.4 0)
(82.3162 776.394 0)
(-65.1085 365.119 0)
(-595.744 2564.55 0)
(-867.898 358.43 0)
(119.707 498.412 0)
(-484.858 2674.69 0)
(50.8474 156.984 0)
(844.066 270.315 0)
(568.263 2221.96 0)
(-288.942 2922.18 0)
(-156.185 528.14 0)
(-395.618 427.789 0)
(-649.314 2736.14 0)
(-50.3745 2581.31 0)
(92.4495 30.165 0)
(89.6162 325.108 0)
(798.377 2528.58 0)
(155.642 117.404 0)
(83.9148 334.273 0)
(365.161 2542.82 0)
(838.5 2555.05 0)
(1558.07 1157.4 0)
(98.6548 1350.33 0)
(-453.283 2640.67 0)
(208.094 2380.77 0)
(1075.8 2368.38 0)
(34.3648 1026.38 0)
(362.121 2771.65 0)
(-200.399 2575.28 0)
(239.336 1000.5 0)
(-206.293 1801.3 0)
(-1123.12 644.169 0)
(-467.953 2631.39 0)
(45.4981 1022.51 0)
(-431.409 1926.6 0)
(-2.81125 520.85 0)
(238.544 2539.31 0)
(1259.91 2307.83 0)
(-1227.41 2317.61 0)
(-16.509 222.894 0)
(-435.509 2627.48 0)
(78.2929 270.506 0)
(456.61 2717.43 0)
(512.394 2531.22 0)
(-75.1937 2729.94 0)
(-634.136 624.113 0)
(604.657 2053.5 0)
(-23.1881 835.501 0)
(0.118019 0.261697 0)
(103.038 1775.7 0)
(-1785.73 1661.49 0)
(-224.667 2262.16 0)
(-1942.87 1380.91 0)
(1117.02 1873.13 0)
(786.705 2336.62 0)
(-438.878 2585.61 0)
(40.3879 135.287 0)
(-521.374 2070.65 0)
(378.554 2672.44 0)
(-1.30421 528.051 0)
(-1031.2 2433.85 0)
(-22.5591 67.9766 0)
(400.023 315.666 0)
(-1885.14 1223.84 0)
(-83.5304 307.728 0)
(55.4238 275.305 0)
(-61.722 512.513 0)
(0.114206 0.281579 0)
(-1301.29 1942.96 0)
(69.6458 210.371 0)
(-1046.15 1577.88 0)
(1135.59 2328 0)
(-1547.03 1738.14 0)
(-1636.98 1521.54 0)
(-589.633 2522.37 0)
(49.9535 1030.07 0)
(111.179 2706.13 0)
(-1733.84 1040.49 0)
(529.531 1711.48 0)
(-43.7674 296.1 0)
(412.385 2529.89 0)
(-49.4211 156.457 0)
(-488.906 1957.19 0)
(579.861 273.106 0)
(-590.802 2338.57 0)
(-869.96 2717.52 0)
(-402.196 213.588 0)
(-43.282 133.401 0)
(1445.77 2179.85 0)
(396.938 99.9154 0)
(-31.6236 953.482 0)
(-1167.93 619.612 0)
(134.51 518.319 0)
(-29.8608 661.372 0)
(724.861 331.344 0)
(347.385 2684.02 0)
(115.876 2706.43 0)
(-61.8949 1335.22 0)
(515.45 315.405 0)
(1728.9 1825.39 0)
(-20.3349 673.295 0)
(-193.137 2149.46 0)
(-1286.2 2289.36 0)
(-1740.06 1399.7 0)
(-1507.65 1738.52 0)
(1439.22 670.057 0)
(-1778.72 1745.14 0)
(69.9815 212.453 0)
(235.307 2627.86 0)
(448.764 1994.74 0)
(-53.0473 188.324 0)
(-72.9354 697.613 0)
(48.4725 361.918 0)
(-194.257 420.178 0)
(-169.01 854.772 0)
(587 2517.28 0)
(89.8924 316.16 0)
(1561 1961.52 0)
(506.944 338.655 0)
(1359.16 1971.21 0)
(120.711 2578.91 0)
(-913.635 397.433 0)
(0.320855 7.56985 0)
(38.1104 1034.99 0)
(-129.625 769.001 0)
(-750.539 357.433 0)
(-1591.89 2099.41 0)
(-32.7772 109.398 0)
(1663.42 1792.12 0)
(-362.917 307.806 0)
(-295.036 2521.3 0)
(34.2643 2347.22 0)
(23.4978 318.574 0)
(-671.149 217.85 0)
(1544.34 1747.22 0)
(965.916 392.443 0)
(-222.705 709.183 0)
(45.5802 358.367 0)
(742.366 1476.18 0)
(-80.0474 336.152 0)
(24.8931 1307.91 0)
(1293.6 2215.43 0)
(705.061 2597.03 0)
(993.61 2646.72 0)
(53.3872 479.413 0)
(-1194.63 2329.01 0)
(-290.392 252.701 0)
(249.544 2757.49 0)
(-591.394 2531.64 0)
(51.3711 180.172 0)
(599.449 302.666 0)
(318.993 2682.4 0)
(-1239.79 2286.71 0)
(-1304.36 1850.94 0)
(15.9779 2901.42 0)
(-83.0634 718.93 0)
(756.71 2040.12 0)
(-902.758 2707.9 0)
(-28.7138 772.5 0)
(813.864 2733.98 0)
(-72.2107 192.18 0)
(-444.968 2759.8 0)
(458.903 2856.45 0)
(25.3211 580.804 0)
(822.166 2324.06 0)
(59.9888 462.573 0)
(-146.153 2575.44 0)
(515.703 218.476 0)
(420.443 2659.78 0)
(-1395.37 2340.79 0)
(-327.118 250.594 0)
(242.472 2571.26 0)
(66.7922 294.073 0)
(-393.231 144.458 0)
(-487.094 2722.49 0)
(-578.411 2775.42 0)
(821.607 2708.76 0)
(306.759 2869.76 0)
(141.576 759.473 0)
(979.444 644.997 0)
(602.114 2583.94 0)
(-99.7931 384.991 0)
(-31.5111 802.693 0)
(-774.624 2046.41 0)
(-49.0788 163.159 0)
(232.291 2399.89 0)
(-1465.04 2292.55 0)
(82.49 305.955 0)
(-160.32 2604.95 0)
(63.4452 169.313 0)
(9.47283 2862.19 0)
(-44.745 2387.77 0)
(354.915 733.313 0)
(442.563 1519.58 0)
(734.05 2103.44 0)
(-16.3551 1258.75 0)
(-908.451 2543.68 0)
(-336.363 393.908 0)
(-712.594 2040.81 0)
(-1827.48 1448.49 0)
(-1265.65 2217.85 0)
(-533.354 148.353 0)
(-146.355 67.2519 0)
(1273.59 1787.04 0)
(-100.888 2625.54 0)
(1013.35 2426.51 0)
(-174.217 2922.16 0)
(102.209 384.888 0)
(496.056 1171.35 0)
(283.316 1755.2 0)
(-350.952 2909.02 0)
(-1396.66 2391.14 0)
(94.0132 25.0682 0)
(80.8961 765.425 0)
(5.68389 48.3389 0)
(1234.18 1470.51 0)
(103.247 391.698 0)
(1027.96 2410.48 0)
(1282.9 1675.49 0)
(57.4097 2764.31 0)
(-53.4962 173.639 0)
(-158.945 737.29 0)
(742.809 2804.81 0)
(-69.6946 893.952 0)
(1423.42 2185.91 0)
(-7.75179 1830.7 0)
(1378.33 2378.9 0)
(1070.97 2372.78 0)
(347.64 2608.89 0)
(-65.3037 2723.02 0)
(-443.982 521.801 0)
(45.6515 2639.59 0)
(-728.812 2401.48 0)
(-686.272 2133.14 0)
(-78.7931 345.727 0)
(61.6731 201.432 0)
(-297.981 2922.87 0)
(1081.49 2364.88 0)
(1270.85 1760.31 0)
(708.373 2401.55 0)
(806.072 1932.87 0)
(-20.9505 64.3792 0)
(-1294.18 1787.84 0)
(8.93928 2577.15 0)
(822.587 2743.61 0)
(24.492 82.4312 0)
(-104.246 383.491 0)
(138.594 752.685 0)
(-443.65 2580.79 0)
(-42.5764 1152.91 0)
(229.754 2406.14 0)
(-90.4601 40.6719 0)
(590.253 2688.97 0)
(-231.086 1256.54 0)
(-129.702 506.487 0)
(1118.55 1953.78 0)
(-10.4856 279.795 0)
(-129.116 2884.03 0)
(810.137 1666.8 0)
(-1318.18 913.463 0)
(973.712 2094.33 0)
(-397.408 1634.78 0)
(-156.085 396.714 0)
(-59.4718 216.043 0)
(-1477.99 1716.1 0)
(-1338.19 594.467 0)
(-947.494 1547.08 0)
(1177.1 1575.3 0)
(210.838 2243.29 0)
(-559.821 2347.63 0)
(18.6365 2696.45 0)
(247.537 2761.03 0)
(115.782 407.3 0)
(-500.627 2652.52 0)
(-615.289 367.529 0)
(-1710.49 1716.67 0)
(418.223 1812.51 0)
(165.788 55.9069 0)
(-407.612 409.84 0)
(-1734.51 1098.1 0)
(27.9535 756.954 0)
(53.093 165.323 0)
(-1249.28 2474.13 0)
(905.83 2512.84 0)
(366.378 2542.75 0)
(618.522 2483.05 0)
(995.574 1519.29 0)
(1433.13 1288.34 0)
(542.173 2520.4 0)
(-471.923 2636.09 0)
(-1062.16 2197.27 0)
(294.846 249.933 0)
(523.479 2856.45 0)
(-39.9066 2383.59 0)
(-1283.1 908.343 0)
(758.088 390.76 0)
(-25.5776 187.692 0)
(1182.84 2106.67 0)
(17.3154 2546.38 0)
(-97.6742 528.131 0)
(1175.47 1854.31 0)
(61.1524 2631.94 0)
(741.285 1884.67 0)
(170.517 774.228 0)
(-38.2347 1739.04 0)
(314.59 2656.08 0)
(316.111 2667.44 0)
(176.988 2372.2 0)
(-212.27 2589.88 0)
(1285.33 1849.27 0)
(190.367 1585.91 0)
(-468.332 133.724 0)
(583.262 2538.34 0)
(50.4893 203.14 0)
(446.618 2665.79 0)
(883.806 1902.37 0)
(-1429.17 1883.98 0)
(1062.83 2232.27 0)
(-5.06647 24.5775 0)
(6.76873 2633.87 0)
(1074.76 2541.44 0)
(10.9374 2631.74 0)
(-15.6344 83.2166 0)
(-128.453 741.39 0)
(-687.18 246.547 0)
(-672.666 243.523 0)
(53.7994 217.517 0)
(0.00482922 0.0157692 0)
(-1231.92 2271.25 0)
(1175.59 1062.39 0)
(104.011 2186.07 0)
(448.085 122.91 0)
(-1318.95 2009.26 0)
(4.34934 1038.91 0)
(650.989 202.827 0)
(1433.82 2195.74 0)
(60.6957 450.793 0)
(-25.4854 1538.19 0)
(-1779.31 1173.8 0)
(-27.0306 190.151 0)
(-62.3252 180.552 0)
(1261.51 1965.95 0)
(-458.242 1885.64 0)
(-546.846 1168.75 0)
(-1021.29 2453.92 0)
(-470.619 2553.34 0)
(273.038 1832.24 0)
(-1333.38 2445.83 0)
(1311.56 2137.58 0)
(-477.119 1652.57 0)
(-86.7747 333.965 0)
(214.083 2573.43 0)
(-75.3314 523.076 0)
(-1446.01 2346.92 0)
(989.812 345.217 0)
(98.8084 1058.58 0)
(991.769 2440.28 0)
(-1896.93 1144.75 0)
(-1642.58 2008.74 0)
(134.501 879.186 0)
(-160.241 603.325 0)
(-256.221 2732.48 0)
(101.365 2052.53 0)
(-375.861 2097.19 0)
(-862.623 295.601 0)
(-1784.36 1750.6 0)
(-410.656 137.444 0)
(-1118.05 454.789 0)
(1222.56 693.591 0)
(-42.5357 2626.88 0)
(-126.792 729.564 0)
(-427.674 2348.26 0)
(-447.633 2605.75 0)
(-905.695 2215.49 0)
(80.7561 797.279 0)
(-74.0621 706.831 0)
(1448.67 2115.39 0)
(1154.87 2132.24 0)
(-82.6698 663.03 0)
(1184.56 1617.52 0)
(-1480.62 2069.67 0)
(-110.686 415.668 0)
(688.201 2511.88 0)
(-161.447 922.322 0)
(516.648 2568.21 0)
(-59.0431 701.847 0)
(111.116 2150.39 0)
(135.576 2583.83 0)
(-824.178 2756.69 0)
(1172.1 2118.22 0)
(0.0518785 0.0533607 0)
(24.06 1388.23 0)
(-40.6412 423.431 0)
(-471.835 2692.85 0)
(-386.476 2111.64 0)
(-40.5155 416.525 0)
(-334.688 2817.72 0)
(1238.67 2234.8 0)
(590.329 2522.62 0)
(-1121.13 423.691 0)
(-101.405 381.718 0)
(-515.769 143.562 0)
(53.2451 446.745 0)
(1551.77 1931.08 0)
(-388.441 2807.35 0)
(17.336 2547.44 0)
(172.102 2662.33 0)
(-847.061 1899.91 0)
(850.866 2746.33 0)
(-97.9725 2726.89 0)
(73.9394 1576.46 0)
(598.858 2584.8 0)
(-1242.72 812.829 0)
(-386.274 2689.45 0)
(-1178.27 461.506 0)
(421.754 2591.63 0)
(-9.97537 1228.68 0)
(52.2286 491.448 0)
(-854.924 2493.67 0)
(21.4288 314.76 0)
(322.098 1528.44 0)
(-29.0831 103.921 0)
(-1637.7 2039.54 0)
(370.201 317.7 0)
(-475.542 2708.56 0)
(-69.7149 878.701 0)
(532.192 2582.67 0)
(-642.795 220.211 0)
(529.903 2853.32 0)
(-648.093 2731.37 0)
(-573.852 2604.33 0)
(-1278.91 762.689 0)
(206.284 2504.45 0)
(-610.699 2787.39 0)
(1880.07 1662.75 0)
(163.625 862.293 0)
(50.5252 170.853 0)
(-172.166 394.657 0)
(-1416.31 1175.53 0)
(-190.563 2569.45 0)
(100.185 1115.27 0)
(92.9001 1368.3 0)
(-428.304 113.036 0)
(-0.164538 2.38782 0)
(-323.276 225.107 0)
(1595.97 2125.7 0)
(-1199.3 2290.21 0)
(962.86 315.206 0)
(69.4088 2519.69 0)
(357.66 2647.42 0)
(858.806 1690.33 0)
(732.781 2581.66 0)
(552.467 2213.54 0)
(-24.5897 410.821 0)
(-283.221 1542.83 0)
(163.795 916.06 0)
(101.824 2060.22 0)
(1780.09 1773.95 0)
(-174.429 2628.93 0)
(204.839 2874.96 0)
(344.767 99.5725 0)
(-1445.34 1827.23 0)
(-195.651 2638.33 0)
(32.628 135.76 0)
(-931.862 504.262 0)
(-161.669 73.5116 0)
(-780.057 405.72 0)
(-179.894 2554.48 0)
(-67.7738 348.095 0)
(361.273 1792.27 0)
(44.7203 414.478 0)
(256.16 2485.16 0)
(116.027 2623.08 0)
(-85.4501 197.975 0)
(23.7915 1189.44 0)
(-1224.75 2475.72 0)
(-15.1457 535.288 0)
(276.856 311.296 0)
(-93.6492 2695.37 0)
(873.4 2379.41 0)
(28.7454 2706.09 0)
(86.7003 64.6308 0)
(-419.63 2355 0)
(1180.63 2613.08 0)
(338.911 478.114 0)
(-1296.8 566.674 0)
(422.496 2588.05 0)
(-572.268 178.622 0)
(-431.421 2400.35 0)
(69.278 809.476 0)
(-478.281 2723.68 0)
(-988.38 2456.82 0)
(-135.545 2544.41 0)
(-803.908 2768.53 0)
(553.973 2605.85 0)
(879.167 454.596 0)
(229.411 2693.06 0)
(-740.851 2576.44 0)
(-0.407853 2585.72 0)
(0.0154791 0.0261157 0)
(-1614.33 953.227 0)
(-250.579 1364.03 0)
(-1784.25 1844.9 0)
(77.2104 806.752 0)
(47.6195 490.33 0)
(-68.6532 364.931 0)
(368.768 2595.63 0)
(1167.14 469.41 0)
(145.564 2583.6 0)
(-22.4441 647.725 0)
(393.821 2785.28 0)
(133.467 2745.68 0)
(-1031.81 2205.82 0)
(1739.15 2011.61 0)
(-1410.67 1686.97 0)
(-1192.06 2341.56 0)
(1549.65 2108.23 0)
(1465.64 2158.74 0)
(663.018 1273.63 0)
(-1330.59 1921.84 0)
(86.8784 344.719 0)
(-1135.22 1284.41 0)
(1322.03 2223.34 0)
(474.705 2618.38 0)
(-1000.31 2670.79 0)
(-131.503 1552.91 0)
(1142.96 2712.66 0)
(-53.8366 183.523 0)
(371.285 2596.24 0)
(1349 1699.88 0)
(-924.28 2664.65 0)
(-48.6195 286.293 0)
(56.5822 261.791 0)
(-1321.94 2190.53 0)
(1353.95 1645.33 0)
(-29.2499 2666.54 0)
(994.585 1051.15 0)
(1066.56 2377.33 0)
(-1670.98 1679.14 0)
(-1734.3 1835.28 0)
(-11.7285 530.404 0)
(1553.17 729.329 0)
(-49.6095 230.856 0)
(628.979 173.424 0)
(-1279.75 2455 0)
(-462.565 2639.11 0)
(1868.45 1751.09 0)
(1400.86 2391.41 0)
(2.43151 1.59704 0)
(-67.1639 243.196 0)
(-194.259 363.982 0)
(-1684.88 1456.21 0)
(-1821.21 1597.3 0)
(-383.263 155.235 0)
(161.894 741.753 0)
(-7.01898 2727.58 0)
(251.552 2901.08 0)
(1459.91 2275.25 0)
(825.849 497.217 0)
(0.640571 0.956479 0)
(212.444 2527.53 0)
(-43.1098 176.015 0)
(817.505 2609.97 0)
(1224.48 2307.02 0)
(1237.09 1895.51 0)
(-79.6351 2574.38 0)
(1112.14 2598.37 0)
(814.838 2176.46 0)
(824.829 274.576 0)
(63.5 803.219 0)
(-70.0314 265.958 0)
(-310.022 116.865 0)
(-1381.03 1774.91 0)
(-126.688 2636.33 0)
(65.7413 1783.71 0)
(-47.706 2685.36 0)
(-839.888 1976.24 0)
(1411.96 804.399 0)
(-1544.9 1413.37 0)
(1728.94 2004.29 0)
(947.3 2115.34 0)
(-21.7033 381.012 0)
(624.681 2178.98 0)
(185.355 2872.13 0)
(-1135.42 2369.59 0)
(-213.847 767.082 0)
(-856.392 533.994 0)
(1745.87 1362.53 0)
(786.217 2784.6 0)
(1084.53 2387.22 0)
(-248.288 2236.98 0)
(648.881 2684.59 0)
(930.74 1804.43 0)
(725.068 2288.42 0)
(1253.72 1920.35 0)
(16.2537 219.361 0)
(-149.138 535.006 0)
(-153.89 952.882 0)
(152.231 620.931 0)
(1527.87 1763.23 0)
(40.5468 412.823 0)
(15.7768 1137.55 0)
(375.676 410.177 0)
(34.6902 2555.98 0)
(1293.46 2206.38 0)
(-564.744 258.664 0)
(1269.56 1497.23 0)
(-66.3447 270.904 0)
(904.191 2700.82 0)
(983.115 2456.76 0)
(-698.022 2820.64 0)
(1861.4 1754.43 0)
(483.207 2634.3 0)
(55.2346 451.931 0)
(-840.316 2654.3 0)
(1419.83 1858.99 0)
(-48.2626 234.097 0)
(174.574 974.359 0)
(32.4969 383.861 0)
(326.899 734.765 0)
(1688.93 2062.31 0)
(-128.533 914.906 0)
(-1136.34 2377.77 0)
(-486.323 2662.54 0)
(-383.347 2676.79 0)
(-760.774 2558.35 0)
(703.03 238.586 0)
(-985.093 2414.25 0)
(322.35 130.4 0)
(-317.865 160.933 0)
(-1058.81 2345.77 0)
(-78.8163 690.087 0)
(-1511.5 2043.54 0)
(-34.6955 1444.53 0)
(171.729 2683.15 0)
(989.774 922.486 0)