/*--------------------------------*- C++ -*----------------------------------*\
  =========                 |
  \\      /  F ield         | OpenFOAM: The Open Source CFD Toolbox
   \\    /   O peration     | Website:  https://openfoam.org
    \\  /    A nd           | Version:  8
     \\/     M anipulation  |
\*---------------------------------------------------------------------------*/
FoamFile
{
    version     2.0;
    format      ascii;
    class       volScalarField;
    location    "4e-05";
    object      alphat;
}
// * * * * * * * * * * * * * * * * * * * * * * * * * * * * * * * * * * * * * //

dimensions      [1 -1 -1 0 0 0 0];

internalField   nonuniform List<scalar> 
23640
(
1.72203e-06
5.71804e-06
3.1605e-09
0.00629784
1.0391e-05
1.48006e-05
7.06919e-06
1.21483e-05
3.79929e-05
5.78175e-06
0.00225695
1.63412e-05
6.55887e-06
8.20178e-06
1.03038e-05
8.92916e-06
7.05e-07
0.0009868
0.0021829
3.77216e-05
0.00153917
6.25066e-10
0.00162999
0.000200775
1.38977e-05
1.08908e-05
0.000351884
6.49829e-05
3.27621e-07
8.06998e-06
4.87769e-06
0.0632045
0.00144212
2.41645e-05
2.56077e-05
8.37834e-06
7.19406e-07
1.89055e-06
1.42763e-08
0.000332327
1.72542e-05
3.87771e-05
1.1409e-05
2.30555e-08
0.0128956
0.000276568
1.5285e-06
8.81698e-06
5.80546e-06
1.09368e-05
0.260709
0.00173892
6.56035e-06
9.28032e-07
0.00666238
2.83441e-07
2.7312e-05
8.83101e-06
3.07017e-06
0.00566667
4.66524e-06
0.000391917
0.00235779
0.00192122
3.77281e-06
0.00187198
1.04677e-05
1.34297e-05
0.000142481
1.2153e-05
0.000369604
2.32625e-05
0.00101452
6.97372e-07
1.4583e-05
0.0174183
5.05166e-09
6.14922e-06
0.00218568
0.0024542
0.000319215
5.52958e-05
3.25978e-06
3.30349e-06
3.62376e-06
2.07713e-06
0.00167797
3.80848e-05
0.000231457
1.00728e-05
4.43579e-06
1.15956e-05
1.7428e-05
0.00139742
0.00202181
1.19273e-05
0.00198311
1.25422e-06
2.21236e-05
1.34457e-05
2.12491e-05
9.29543e-07
8.56181e-05
5.46518e-07
1.71922e-05
1.62535e-06
0.000676038
6.25626e-07
1.92248e-05
2.45009e-05
3.92858e-06
0.00108361
2.73206e-05
1.67524e-05
1.30233e-05
2.23094e-07
9.1644e-06
3.50802e-06
1.43626e-06
9.13996e-06
2.0019e-05
0.0567346
1.62584e-06
0.0631842
0.000132452
0.000190172
0.346498
3.49352e-05
1.47963e-05
1.48722e-05
0.000105176
3.4638e-05
6.99645e-06
0.000200915
8.25707e-07
2.83901e-05
0.00169632
1.39153e-05
0.00228265
0.00201119
2.37086e-05
2.72275e-05
0.000921691
0.00230999
0.000462693
1.9029e-05
0.0020069
0.000590668
4.60244e-06
0.00013664
1.03405e-05
1.47656e-05
3.52199e-06
0.0041192
6.24157e-05
9.05103e-07
7.09723e-06
2.74478e-05
1.14169e-05
0.000347631
8.84914e-06
4.9189e-06
8.36435e-06
6.63059e-06
2.28659e-07
1.77609e-07
0.000392089
0.000113075
0.000879819
3.42736e-05
8.68833e-06
1.22408e-05
1.472e-05
1.78232e-05
0.00156598
0.00128673
1.53421e-05
2.08354e-05
0.00245918
6.9785e-06
0.0129272
8.56419e-08
1.3727e-05
5.28181e-05
3.70767e-07
0.000918508
0.000134284
1.60804e-05
0.00365853
5.90785e-05
4.157e-05
0.00192952
0.0420828
3.49362e-06
5.17834e-07
0.000199611
1.75004e-05
1.61047e-05
6.30272e-08
0.000141762
0.00229767
2.74542e-08
1.97703e-06
3.75626e-05
0.00197889
3.61687e-06
4.74412e-08
0.00153783
1.77881e-05
0.000588415
8.6239e-06
1.28145e-05
5.27806e-06
3.65669e-06
1.42688e-05
2.28199e-05
1.02413e-05
3.76198e-05
1.40115e-05
3.52917e-08
5.67284e-06
0.00208908
0.0022866
1.67518e-05
0.000271908
2.56053e-05
1.26412e-05
0.057637
3.85345e-08
4.43425e-06
2.06645e-06
4.92268e-07
3.1999e-05
1.23519e-05
2.70787e-05
5.724e-05
0.000398172
2.28675e-05
4.59363e-06
0.000180292
2.50204e-05
3.91617e-06
1.74701e-05
3.77699e-05
0.00578692
7.67068e-07
5.2462e-06
8.09842e-07
0.00329284
0.000155059
0.00665914
1.13141e-05
1.62634e-06
0.00147527
3.23221e-06
0.000341285
2.61609e-09
5.4628e-07
0.00146952
0.00102812
0.00909756
3.69433e-06
2.68443e-05
1.91265e-05
2.05538e-07
1.12358e-05
0.000227176
2.03906e-05
3.26934e-06
0.0016279
1.10854e-05
1.40712e-07
1.44251e-05
0.00431297
2.96592e-05
2.57001e-05
3.57426e-07
0.0549962
0.00215297
1.73475e-05
0.000170726
1.25066e-07
0.000834536
0.0024012
2.54982e-05
0.000360881
1.40354e-05
1.24211e-05
7.40441e-06
0.00239689
1.67818e-05
4.99679e-07
2.16248e-05
1.21396e-05
0.00227133
1.75177e-05
1.47392e-05
7.69199e-07
1.31131e-05
8.48248e-07
0.000117875
0.00194311
0.0655452
1.53402e-05
0.00166603
1.98442e-07
4.23807e-05
0.000219358
0.00807236
0.000819496
4.59827e-07
3.71262e-05
0.0016062
0.00183484
0.00220925
0.000209669
1.56801e-05
2.27278e-09
0.00205542
1.89514e-05
1.48187e-06
2.49256e-05
2.49532e-05
6.10776e-05
8.32323e-07
2.99568e-05
0.000146694
1.69869e-05
2.20024e-06
0.164063
0.000763089
1.23299e-05
5.44952e-05
9.27301e-05
2.048e-05
1.65867e-05
6.32357e-08
1.20691e-05
1.67213e-05
1.30178e-05
9.51559e-07
0.00063705
6.1687e-05
0.0492247
0.00129432
0.000949168
0.000306563
1.59725e-05
2.40471e-05
3.3789e-05
0.00104252
2.56486e-05
5.44474e-07
3.44656e-06
2.46977e-05
1.91518e-07
6.61807e-06
2.8121e-06
0.00214958
0.00212939
0.000129085
0.00196359
0.00196784
6.91792e-07
2.15321e-05
8.08275e-08
1.13461e-07
9.84044e-06
0.00225421
8.24177e-06
4.13933e-05
6.56704e-05
4.57662e-07
0.00221088
0.000128701
5.36616e-07
0.00429739
2.66969e-08
1.71357e-05
0.000237305
0.0011404
7.07905e-05
2.12071e-05
0.000756811
2.61993e-05
8.11832e-07
1.26042e-05
1.715e-07
0.000253464
1.40866e-07
0.0016352
1.22653e-05
3.957e-08
6.91074e-06
2.66801e-05
0.000293409
0.0485738
1.72246e-06
1.66298e-06
0.000242393
3.42666e-07
0.000138137
2.82751e-05
1.74189e-07
6.36321e-06
1.23619e-05
0.00365285
3.72391e-07
1.05254e-05
1.2399e-05
1.63004e-05
0.00325033
0.00127322
4.12572e-05
0.00210573
1.60498e-05
0.000334465
8.15848e-06
4.19856e-05
3.18614e-05
0.00155141
0.00160347
1.26858e-05
1.58647e-05
8.01007e-06
1.84172e-07
0.0527479
2.19304e-06
0.00192982
9.44928e-06
3.78771e-07
0.0153942
0.000613156
0.00150006
0.000148003
0.0013518
4.82447e-05
7.07174e-06
0.000101873
0.00272171
9.57952e-05
0.00180869
3.54844e-06
9.51517e-06
0.000790903
1.29502e-05
0.000276017
1.04388e-05
0.00229903
9.78199e-06
57.1831
1.05408e-05
0.00163131
1.29481e-05
0.000611454
8.62373e-07
6.71877e-06
4.24022e-05
0.000810448
8.45071e-06
4.1819e-05
2.52181e-05
2.6031e-05
5.37527
9.6018e-06
9.38682e-06
1.07362e-05
1.15421e-07
1.63436e-05
4.19434e-05
9.68425e-05
1.3474e-05
0.00981679
5.71671e-08
8.03061e-07
0.000368912
9.67928e-06
1.26329
3.60865e-05
0.0108304
1.70461e-05
2.0675e-07
5.01435e-05
9.6241e-06
9.37502e-06
1.36488e-05
0.000780221
5.19416e-08
5.25023e-06
1.40149e-06
0.000223574
0.00644316
5.28163e-06
0.000139467
1.66777e-05
1.20882e-05
1.72498e-05
0.000648729
1.46145e-05
2.39219e-06
1.11535e-05
0.00267221
1.85535e-07
1.88345e-05
1.41153e-05
3.16584e-06
2.61753e-05
3.92884e-07
4.77356e-07
6.44511e-06
0.000322754
1.4288e-06
5.85773e-06
2.75064e-06
0.00145776
2.19705e-05
2.52492e-05
4.94478e-07
3.665e-05
0.00234608
1.57572e-05
0.00146202
89.2435
7.97025e-06
7.27214e-06
2.77221e-05
0.00127482
4.36901e-05
0.00117901
3.0143e-06
1.31265e-05
0.000313861
5.15481e-05
1.27174e-05
1.13873e-06
8.47233e-06
6.74296e-06
2.45053e-05
6.269e-07
2.72087e-05
6.56624e-06
1.37837e-05
1.72688e-05
1.2611e-05
1.07711e-06
1.00925e-05
8.44581e-06
0.000408495
1.3444e-05
1.34598e-05
0.000136772
1.23068e-05
7.26945e-07
3.669e-08
9.7451e-05
8.02306e-06
1.65241e-05
2.88807e-06
0.0017846
0.00183811
3.37242e-06
0.000868115
1.82141e-05
0.000143403
0.00203851
0.00159771
1.65009e-05
0.00196315
3.48919e-05
6.68606e-06
36.2234
9.5947e-06
1.65242e-05
1.39068e-06
3.16875e-06
0.0022343
2.23731e-06
2.29571e-06
1.55407e-05
1.28926e-06
0.0167295
3.19278e-05
2.78223e-06
4.27307e-05
0.00185145
0.000208106
8.3837e-06
1.53388e-05
1.0356e-05
0.00199972
0.00317008
1.50474e-05
1.56907e-05
3.5047e-05
3.13676e-06
0.0020669
3.48455e-05
0.000193244
1.37364e-05
1.55317e-05
0.00218242
0.00230496
0.00133699
4.19508e-05
7.07497e-06
5.16305e-07
2.87856e-05
1.22139e-06
2.27063e-05
0.0012246
9.11884e-06
1.04358e-05
1.72932e-05
1.11489e-05
1.47477e-05
2.88378e-05
2.30425e-06
2.08993e-05
9.67813e-07
0.0534266
0.00201314
1.48786e-05
1.87947e-05
0.00321944
1.07664e-05
0.0019009
9.8826e-06
0.00217957
1.193e-05
3.61447e-06
1.04397e-07
1.80233e-05
1.01841e-07
7.05252e-06
4.09423e-08
0.0077488
1.18427e-05
1.0103e-05
1.60159e-06
7.21387e-06
3.50871e-05
1.45448e-06
0.00078884
6.62718e-06
1.11048e-07
3.17246e-05
0.00217787
0.00017369
8.26675e-07
1.60868e-05
1.50532e-05
0.0438372
0.000345867
4.33566e-06
3.60041e-05
0.00190906
1.46686e-05
0.000780155
6.98287e-06
3.68103e-06
4.8906e-05
0.000217769
2.19383e-07
2.97934e-05
2.39416e-11
4.97052e-12
2.37737e-06
0.0329842
0.000347606
1.88117e-05
0.0563057
2.17949e-05
1.30951e-05
1.68928e-05
0.00218238
8.4861e-07
8.70259e-06
1.37629e-05
1.53876e-06
0.00269871
0.00621836
3.45515e-05
1.68651e-05
2.64403e-08
2.56185e-05
5.65768e-07
0.00489615
1.9155e-05
0.000277019
0.0531074
2.97351e-07
5.12928e-08
0.000408258
5.34701e-06
0.00138462
4.66129e-07
1.38535e-05
2.14097e-05
0.000376619
2.58306e-05
0.0165692
0.00216486
2.59008e-05
0.000136747
1.32829e-06
2.61841e-05
0.000203637
1.7389e-05
0.000566068
3.08393e-05
0.00139169
0.000187348
1.67667e-05
6.04868e-08
1.71522e-10
7.11562e-06
1.74007e-05
8.04302e-06
0.00143185
2.96729e-06
2.48853e-05
0.000359918
1.17782e-05
8.28587e-08
6.08017e-05
7.46167e-10
1.7653e-07
6.83766e-07
1.84256e-05
0.00534376
2.68582e-05
2.13781e-06
0.00226073
0.000462257
8.4304e-07
2.38447e-05
2.28786e-07
1.65834e-05
0.00240277
3.15136e-05
7.70016e-06
2.47128e-05
0.00246614
2.50707e-05
4.52422e-07
0.000715299
2.72624e-06
6.87676e-05
3.71879e-07
9.17417e-06
0.00114647
1.14951e-07
1.5397e-05
7.60794e-06
1.31014e-05
1.30756
0.000233463
6.8988e-07
0.00164101
0.000294492
3.09098e-06
3.03e-06
0.000559761
2.57076e-05
0.00384218
8.12822e-07
0.002396
3.15978e-05
0.00137564
6.02879e-05
1.28663e-05
3.89193e-05
0.00023874
2.74954e-05
0.000192586
6.79849e-06
0.000948651
3.33579e-05
0.00170541
2.23657e-07
1.55272e-05
0.0659589
5.16473e-09
2.46177e-07
1.40293e-06
0.00586882
0.000169436
3.5468e-07
4.97743e-05
2.75291e-05
5.24112e-08
9.27376e-06
0.000587085
1.24767e-05
1.16887e-07
0.000406315
1.50887e-06
0.00185404
9.00366e-07
0.00029065
3.24907e-05
2.44406e-05
1.63225e-05
3.86481e-06
1.07906e-05
0.00206443
8.14076e-06
0.00191899
0.00165936
8.41218e-06
5.96734e-06
0.000233917
1.16414e-05
0.00324689
1.16132e-06
4.26194e-05
6.38143e-06
5.39459e-06
1.07406e-05
1.94751e-05
3.48796e-05
7.85876e-09
5.92906e-06
6.98903e-05
7.44875e-07
0.000505086
0.000107953
3.0516e-06
1.1936e-05
0.000582777
8.6021e-06
0.000231617
1.48475e-06
0.002089
2.66394e-05
2.33641e-05
1.76201e-05
0.000839974
2.10474e-08
7.1606e-06
0.00202696
3.44881e-05
0.00239143
2.44121e-05
8.87518e-07
6.7019e-07
0.00418198
8.63744e-06
0.000250442
1.24595e-05
6.96233e-06
6.72699e-06
1.55567e-05
4.42371e-06
0.00224113
40.2333
1.80473e-05
4.39566e-05
3.352e-05
2.88133e-05
3.17939e-05
1.76016e-06
1.1404e-05
4.57316e-05
0.00042672
6.10173e-06
0.00238374
1.84783e-06
0.0193516
5.06561e-06
3.5625e-05
0.000520721
0.00184258
0.00194599
0.511617
2.97217e-07
0.000142132
0.000149325
7.35306e-07
1.33903e-07
1.5339e-05
5.21375e-06
0.00198483
5.16708e-06
2.54068e-05
3.64759e-05
0.0023452
0.000102392
0.00473709
5.80973e-06
3.59255e-09
0.000204224
1.94684e-05
4.06613e-06
4.73653e-05
5.81159e-05
1.30381e-07
6.61316e-06
2.06803e-08
0.000303998
0.00223569
6.90564e-08
1.02944e-05
5.14963e-06
0.000693103
6.15717e-09
5.64613e-05
5.18941e-06
2.89782e-05
8.19582e-07
6.08599e-05
1.34931e-07
6.45344e-06
3.79771e-05
0.000480368
1.12878e-05
0.000522336
0.00130305
0.00194291
0.00223233
1.00066e-05
0.000608362
8.43148e-06
0.000247094
1.86246e-07
5.90569e-06
5.02907e-07
3.11632e-05
6.02325e-06
0.00359781
0.00205425
0.00132958
2.56348e-09
1.80957e-05
0.0104278
7.26673e-05
7.17764e-06
7.2466e-06
2.22275e-05
0.00287881
1.99429e-06
1.0087e-07
8.79198e-07
1.32649e-05
0.00229314
3.93549e-05
0.000882657
0.00051756
4.98584e-07
3.38682e-06
1.43954e-05
0.00210031
1.16048e-06
6.09681e-06
5.11315e-06
5.44266e-06
0.000479418
5.72123e-09
7.81694e-06
4.51934e-07
1.77517e-05
4.30334e-06
0.00186446
2.26586e-06
1.85561e-05
6.49021e-06
1.00386e-05
0.0025073
3.09338e-06
1.02401e-05
0.00229077
1.60338e-06
0.00198653
3.02166e-05
2.80046e-06
6.48576e-06
1.60099e-05
6.27635e-06
2.05878e-05
0.00127142
2.1131e-06
3.80947e-06
1.97384e-05
1.04103e-05
1.09962e-05
0.00110319
2.16244e-08
6.8508e-06
0.000438746
0.00222404
2.03132e-06
0.00415696
1.78276e-05
1.66921e-05
0.000500743
2.76489e-05
0.00291896
3.08354e-06
2.69814e-05
1.42574e-05
3.35598e-05
2.57971e-06
0.00168597
5.99975e-05
8.44345e-06
0.000352822
4.85937e-05
5.30976e-07
1.62738e-07
3.51894e-07
1.71837e-07
1.4517e-05
1.94104e-06
6.81436e-06
0.000162964
2.8346e-05
7.93876e-06
6.8396e-06
2.79714e-05
1.82554e-08
0.00192704
0.0273587
7.15096e-08
0.000309434
7.10516e-05
3.34976e-07
6.45004e-06
0.00180929
4.51863e-05
1.04754e-05
0.00200508
5.7745e-05
1.13194e-05
3.32972e-05
1.55165e-06
1.55359e-05
7.70043e-06
1.10003e-05
2.24535e-05
1.6666e-06
2.90488e-06
0.00100846
3.62348e-06
6.54161e-06
1.34814e-06
0.000176385
2.67106e-05
0.000364068
0.0209233
1.87689e-05
4.88154e-06
1.56206e-05
0.0140308
0.000222272
0.00113733
1.11881e-05
0.00156856
1.48308e-05
9.9324e-08
3.8172e-05
1.59424e-05
0.000248887
6.83415e-07
0.00335268
1.16678e-05
1.90217e-06
3.38662e-08
0.000214912
0.000774847
9.94218e-06
0.000558911
1.14657e-07
8.78318e-06
0.000112442
8.29002e-05
1.64332e-05
0.000199524
4.75221e-06
5.18283e-06
0.000340544
6.01068e-06
7.48994e-06
1.91871e-05
0.00067878
3.21138e-08
9.10616e-06
1.62065e-05
0.00224536
0.000181472
1.49867e-05
5.64721e-05
1.56151e-05
4.46152e-06
4.04872e-05
1.99292e-05
5.60366e-06
7.07696e-06
1.15896e-06
4.25499e-06
8.69977e-06
2.69519e-05
3.32831e-08
7.40915e-09
0.00489516
4.68322e-07
2.53668e-05
0.00129197
4.89999e-07
2.80781e-05
0.000410742
0.000513486
1.88241e-05
4.8919e-06
4.8946e-06
1.50093e-05
1.93998e-05
0.000166466
0.00109754
6.20969e-08
9.71159e-05
0.000481941
6.13591e-06
1.4741e-06
3.74441e-07
8.57896e-07
0.0808278
1.42681e-05
3.10195e-05
1.42478e-05
0.0147135
0.00129693
3.91506e-06
3.99419e-06
0.00146295
0.0437548
5.35398e-07
6.65157e-08
1.78312e-05
4.37513e-08
2.58264e-07
0.00216758
1.05614e-06
3.12384e-07
0.00196481
1.43258e-05
3.4657e-05
0.00472129
0.000971755
3.2285e-07
0.000601882
2.44167e-05
1.85688e-06
9.23699e-06
7.97203e-06
2.5134e-05
5.66472e-07
0.00067549
4.6816e-06
0.000103102
0.00173268
1.95303e-05
1.85043e-06
0.0013066
2.05498e-06
2.27886e-05
4.68304e-05
0.00129968
0.000234766
4.66019e-05
0.000571324
3.64057e-05
3.7171e-06
3.70111e-05
1.16044e-06
7.04608e-06
8.50518e-06
1.36981e-05
0.00129995
4.27205e-05
1.27131e-05
1.23268e-06
0.00193371
0.00193874
3.72267e-07
5.07298e-07
0.00181263
9.41518e-05
1.96062e-07
0.000182047
4.36579e-06
0.000758247
9.70437e-06
6.67274e-06
1.82932e-05
1.24959e-05
1.13289e-05
4.97339e-07
43.1358
9.97987e-06
0.0022646
9.14271e-06
3.97957e-05
0.00227289
2.21913e-05
4.81881e-07
9.92063e-05
5.22953e-06
0.000221337
1.44e-06
0.002095
1.36989e-07
2.1798e-05
2.52894e-05
1.07096e-05
1.73519e-06
1.07768e-05
5.1021e-06
0.001264
6.77064e-06
2.79148e-08
6.07546e-06
4.37751e-06
1.20091e-05
0.00129971
0.00211168
1.48283e-05
0.00292785
0.000722833
0.0112192
4.62575e-05
4.74848e-06
4.2587e-06
0.00201193
9.54588e-06
6.66087e-10
8.65617e-06
1.27245e-05
3.04418e-06
2.51745e-08
2.04062e-05
1.80368e-05
2.49186e-05
1.47319e-05
0.000616274
1.25466e-05
6.05979e-08
1.88173e-05
0.00084583
1.50209e-05
9.40945e-08
0.00049438
5.79654e-06
3.67793e-05
6.06042e-07
1.26575e-06
0.000136513
3.83908e-06
1.75687e-06
3.40536e-06
4.26977e-05
0.00247818
2.48029e-05
0.000727488
0.000581023
4.88396e-05
1.39354e-05
1.30493e-05
5.32302e-10
2.93041e-07
1.67964e-05
0.000118842
1.57818e-08
1.81135e-07
2.95991e-09
1.82345e-05
0.00149137
0.000735556
0.00225235
3.09242e-05
1.16616e-05
1.12858e-05
0.00152863
1.50357e-05
0.00234965
5.60116e-06
8.12538e-06
1.29114e-06
5.61476e-06
6.20815e-07
4.2689e-05
1.56391e-05
9.40866e-06
8.62632e-06
1.19062e-05
1.70535e-06
0.000204765
0.00202718
3.47144e-06
1.88086e-06
2.0123e-05
1.10026e-05
3.5684e-06
1.24342e-07
4.524e-06
3.43504e-06
8.65704e-06
78.2059
1.45436e-05
1.73581e-05
2.4289e-05
0.00196123
0.00216778
0.00154068
1.50957e-05
2.94682e-06
9.87554e-05
0.00226471
6.55438e-06
8.68461e-06
1.0838e-06
2.63573e-05
1.29744e-07
7.50874e-07
4.69429e-05
2.32095e-07
3.27576e-05
2.81799e-07
0.000548684
2.56636e-05
5.97576e-05
1.30661e-05
1.32553e-05
1.85649e-05
1.49553e-05
0.000990753
1.52061e-05
0.000142928
1.33812e-05
0.00212789
0.00166598
3.83423e-07
1.11814e-07
1.00766e-05
5.88869e-08
1.58209e-06
1.73211e-05
4.39032e-05
0.00236372
7.85002e-06
0.00206786
3.50017e-07
2.48404e-05
3.65471e-06
2.87594e-05
2.9731e-05
0.332917
0.000322516
1.02432e-05
6.84381e-05
3.79343e-05
2.51793e-06
0.000634851
6.55676e-06
8.62034e-06
1.87687e-05
1.4302e-08
0.0419446
1.03708e-05
0.0040147
3.1103e-06
4.72903e-07
3.28668e-07
3.40033e-05
1.71598e-05
4.73088e-05
1.66763e-06
0.00205992
0.000587649
9.02752e-11
2.09025e-07
2.68684e-05
1.76354e-05
3.95102e-06
0.000324352
8.99191e-06
6.70176e-05
2.76044e-05
0.000214906
0.00258167
0.000296508
1.35267e-05
1.34119e-06
1.36787e-05
1.04811e-05
4.52199e-05
1.05287e-05
6.86904e-05
0.000366987
3.5485e-05
0.000314484
3.87516e-05
2.35456e-07
3.6249e-06
0.000222673
7.30442e-05
0.000296627
1.5258e-07
0.00231444
0.0019765
7.05796e-06
3.37053e-05
3.47488e-07
4.84248e-06
1.40357e-07
0.000154288
1.72829e-05
1.74104e-06
1.00807e-05
2.94104e-05
1.29731e-05
0.00206501
3.74487e-05
0.000128447
0.00216132
1.20011e-05
3.42054e-06
1.43635e-05
3.11613e-05
1.07219e-05
6.88313e-05
6.26133e-06
1.19327e-05
3.06992e-06
1.65804e-06
1.49222e-06
1.84109e-10
3.62249e-06
1.03748e-06
0.00188082
1.66754e-07
1.25516e-05
9.01427e-06
1.81259e-05
3.92063e-06
1.49508e-06
3.99964e-08
3.16169e-08
1.15788e-05
0.00214117
5.4626e-07
5.84358e-06
0.00231358
6.75228e-06
2.82964e-05
5.53465e-06
3.2989e-05
0.0017778
3.19557e-07
0.0119209
0.00178947
1.10031e-05
3.14773e-09
6.1462
5.27652e-06
1.75338e-05
3.11529e-05
0.00106632
1.23203e-05
7.76337e-06
6.8468e-05
3.38199e-05
1.34834e-05
3.03958e-06
4.47478e-05
0.00407943
0.000538235
1.3806e-05
0.00166855
0.000187961
1.80208e-08
1.67299e-05
0.000867779
0.00256327
0.00260474
7.10197e-06
8.52024e-06
0.000417508
1.78851e-05
1.02666e-05
1.22204e-05
0.0001765
0.00167696
1.03672e-06
3.15962e-06
8.39611e-06
1.17372e-05
0.00213034
1.06492e-05
4.77597e-06
3.35019e-05
0.000724832
4.94926e-05
1.55948e-05
0.00367412
0.0152521
0.0016986
0.00551449
2.16345e-07
6.73922e-05
0.000253515
0.000179463
2.50615e-05
3.64264e-05
7.09813e-06
9.29751e-06
0.00215507
3.14027e-08
5.88335e-05
0.00224209
6.843e-06
0.00559212
0.00132666
0.00122124
54.4634
2.24228e-06
4.94413e-06
2.07599e-05
2.68812e-05
0.000593601
0.000197414
3.72686e-07
4.28417e-08
2.09589e-05
2.70073e-05
1.17789e-05
3.30439e-05
1.67349e-05
0.00217681
6.5823e-06
1.37139e-05
1.60353e-05
1.11368e-07
1.94932e-05
0.00246732
6.22533e-06
2.30486e-06
0.000429731
5.54432e-05
1.49949e-05
7.58006e-06
1.42837e-05
2.04526e-05
7.53711e-06
1.87992e-06
5.00619e-05
3.17489e-06
0.00116934
0.32356
0.00371885
1.10404e-05
3.2258e-06
3.56772e-06
0.000162108
4.10731e-06
3.72709e-05
2.35865e-05
7.64633e-05
7.91832e-06
0.000727209
0.00195439
1.5411e-05
1.79338e-05
1.18081e-06
1.58977e-09
0.0010235
2.7846e-05
1.66264e-05
21.7626
1.09855e-05
1.26157e-05
1.33799e-05
0.00400322
1.40279e-05
1.3072e-05
0.00195916
9.29627e-06
0.000324932
3.34228e-06
0.000166238
7.7604e-05
0.00466596
2.06462e-05
4.61907e-05
1.24574e-05
8.366e-06
0.00210032
5.97912e-06
7.0618e-06
8.44277e-06
0.000160346
1.64642e-05
0.0028014
0.000165452
0.00135087
2.88217e-05
8.66114e-06
3.97886e-06
2.82774e-05
0.000316683
1.78153e-07
1.02939e-05
0.0351101
0.00196161
1.74276e-06
0.000378791
4.70809e-07
4.5581e-05
5.53563e-06
0.000839531
3.3318e-06
3.60715e-07
0.00269358
0.00232395
4.7341e-06
1.4763e-05
0.0033157
1.32454e-07
5.7542e-05
2.61793e-05
1.19965e-05
3.84287e-05
2.4987e-07
6.43744e-06
2.88705e-05
0.00110992
1.22334e-05
0.000141949
0.00223623
0.000136912
8.9463e-09
1.58257e-05
9.10294e-06
3.35679e-05
0.0128845
6.71288e-05
0.000603812
0.0235565
3.32963e-05
1.51122e-05
1.12178e-05
0.0043503
1.39928e-06
9.65379e-06
1.60105e-05
2.03348e-05
0.00342285
3.75023e-07
3.36628e-05
4.96292e-06
8.26664e-05
0.00105827
2.60731e-05
0.00197884
4.46492e-07
7.47894e-06
0.000807372
0.00128608
5.34145e-05
0.0377714
2.89144e-07
2.52973e-08
1.54427e-06
0.000299844
4.39996e-05
1.38774e-06
6.12816e-05
3.87258e-06
0.0312286
8.84513e-07
6.11618e-07
5.37572e-06
3.18929e-07
0.000467392
0.000434257
8.07788e-06
0.0015576
1.42207e-05
1.21186e-05
0.000513722
1.04977e-05
0.000197955
2.98883e-05
2.58526e-05
6.25591e-06
3.24733e-05
7.31778e-08
0.000381331
1.14822e-05
3.26581e-07
0.000133554
1.68718e-05
5.45773e-06
6.61913e-06
1.82907e-07
0.00278898
3.64995e-06
0.00282499
1.79844e-05
1.19134e-05
6.35672e-05
0.000657813
0.0018798
3.32657e-05
0.00160249
0.00199409
4.00292e-05
3.97387e-05
24.5086
0.000258867
4.41014e-08
1.53807e-05
0.00158789
0.00016195
1.05984e-05
0.00346928
0.0014082
0.000839382
0.00239181
5.42909e-07
5.26179e-08
5.37235e-07
1.80506e-05
3.04184e-07
0.000135898
0.00229409
2.32096e-06
0.00230004
4.91132e-07
3.7729e-07
5.81142e-06
0.00199063
0.00126518
3.68895e-05
1.30637e-05
0.00194896
6.38446e-06
1.18285e-06
1.71448e-05
6.00853e-07
0.0593145
1.12942e-05
0.0010342
0.000325534
2.7963e-05
0.000537876
3.62828e-05
2.64466e-06
1.29953e-05
3.92856
2.04247e-05
0.00119989
2.12868e-05
1.8277e-06
9.03598e-06
0.00646618
0.00517724
1.67298e-07
1.5985e-05
0.00212544
8.76386e-06
0.000108584
0.000297231
0.00175098
0.000262833
1.65426e-05
1.26992e-07
0.00191463
0.000651982
0.00238269
9.45427e-06
0.00429405
4.17169e-05
5.43034e-06
3.01229e-09
4.84095e-06
0.000208637
0.00197896
5.05834e-05
0.00163558
1.61144e-05
7.73987e-06
1.65058e-05
0.00034756
8.23382e-06
6.15217e-06
1.52628e-05
3.6508e-05
1.25363e-05
0.00214371
5.23084e-06
2.07967e-05
0.000315142
7.84478e-06
4.22726e-05
0.00102139
0.000109132
4.4158e-05
5.73281e-06
1.38946e-05
2.20508e-05
2.54015e-06
4.27489e-07
1.68878e-05
0.029612
2.42135e-07
3.47938e-07
4.05873e-05
6.79589e-06
3.05329e-05
3.01149e-05
0.00178241
0.000317307
2.04488e-05
1.06504e-06
1.31285e-07
0.0222913
2.31241e-05
7.33983e-06
1.43152e-05
0.00222889
5.99165e-06
0.00228681
0.00199113
1.00151e-07
0.0021364
0.000623438
1.48564e-06
9.982e-06
0.000467457
3.33554e-05
9.36571e-06
8.68518e-08
1.19204e-07
2.88911e-08
4.69278e-08
3.32228e-08
3.62937e-08
1.14025e-07
7.46982e-08
9.31515e-08
3.7894e-05
0.000196579
2.80212e-06
3.38891e-07
0.0021611
1.41659e-06
33.3482
4.12582e-06
3.34948e-07
2.21325e-05
7.50564e-08
0.00221258
1.25484e-06
2.63553e-05
2.69295e-06
3.59372e-05
3.66885e-05
4.2294e-07
0.000211455
1.49107e-05
3.38848e-05
7.36743e-06
2.08596e-05
0.000188825
2.87044e-05
3.50922e-05
2.5829e-08
2.41155e-06
1.2893e-05
0.0004575
2.31613e-05
3.42953e-05
0.00267021
9.15003e-06
1.19817e-05
7.67443e-06
6.66897e-08
4.48132e-07
7.59808e-06
1.49693e-05
4.01624e-06
1.74341e-06
0.00150305
8.03494e-07
0.00908706
2.2518e-05
0.000435663
0.000545321
7.3973e-06
0.00857517
0.000140855
1.62297e-05
3.11703e-08
0.000122013
4.60411e-07
0.00188206
0.00275417
6.52044e-06
7.20685e-06
5.63823e-06
5.03784e-06
0.00821431
4.19793e-05
1.49233e-05
1.77836e-05
0.000634413
2.23305e-05
3.75326e-07
0.00029064
3.46522e-06
1.23674e-05
3.14748e-05
1.20469e-06
7.27154e-05
1.95776e-05
1.37223e-05
6.75007e-05
2.61564e-05
6.99506e-06
0.00177516
1.49828e-05
0.00256344
0.0085208
0.00217019
0.0024032
1.33175e-05
1.88697e-07
2.70711e-05
0.00123673
5.40123e-06
6.05657e-06
1.1729e-05
8.51283e-06
0.000458013
6.36168e-08
5.19058e-07
2.70256e-05
0.00210113
0.000356879
1.28281e-05
0.00190639
3.04844
6.59358e-06
0.00014614
0.00106054
0.000587457
0.00185044
4.14838e-07
0.00863759
2.38572e-05
1.70789e-05
0.00212768
0.00444624
5.99777e-06
4.49874e-06
3.61984e-06
2.96981e-12
2.72773e-05
5.25345e-05
8.67518e-07
3.62524e-06
5.63895e-08
0.000611215
1.85988e-06
2.00636e-05
0.000126978
6.87639e-06
6.65538e-06
4.93044e-06
3.20381e-05
0.0019552
3.93025e-05
1.86454e-06
1.88377e-05
7.99098e-06
2.71725e-05
8.06274e-05
8.08897e-06
0.00214884
4.02408e-06
2.26006e-05
7.03697e-06
1.80427e-06
1.95946e-06
8.52817e-05
1.94088e-05
0.00206933
2.16371
8.14248e-06
0.000987351
1.08243e-05
4.77462e-05
4.54189e-06
2.557e-06
1.71398e-05
3.29233e-06
0.00110394
2.20029e-05
0.000506375
1.6642e-05
3.22112e-05
2.26754e-05
1.64676e-05
0.00245918
1.15908e-05
2.28996e-05
9.54774e-07
2.99599e-06
0.000200682
2.74015e-07
3.29322e-06
2.31166e-06
3.94698e-05
3.75293e-05
1.06999e-05
0.000533279
2.08493e-05
1.21773e-05
0.000388854
0.00416137
1.41286e-05
3.11484e-05
0.000327375
0.000153014
0.00023822
0.00244995
0.00227038
0.00141352
6.80961e-08
2.55442e-05
1.02592e-11
0.00238557
9.7384e-07
2.80421e-05
3.20871e-05
0.000122071
5.08481e-05
0.00079928
1.62676e-05
3.09873e-05
0.000472016
6.33253e-05
0.00224362
5.00342e-05
0.000610427
0.0019033
3.70726e-06
1.5301e-05
6.56402e-06
0.000135979
6.85153e-07
1.33939e-06
3.26964e-06
4.72722e-06
2.52966e-05
5.89287e-05
2.26866e-06
2.42174e-06
1.65859e-05
2.83136e-05
1.3056e-07
2.55951e-06
1.70352e-05
1.4108e-05
0.000932689
0.000139403
5.4051e-05
4.46657e-06
0.00138117
0.000697543
3.72316e-05
0.00196949
3.50602e-05
2.0329e-05
0.00222533
0.00400059
0.101378
5.65977e-06
0.00024157
0.000886429
2.36982e-05
0.00139445
0.00185855
1.90017e-05
1.61567e-06
2.86707e-06
5.91197e-06
4.23585e-07
2.42879e-05
2.14209e-07
4.27658e-07
0.0065736
0.00500278
1.5221e-05
0.00245896
3.47047e-05
8.99344e-06
0.000371631
9.5406e-06
6.71116e-05
0.00375244
2.70155e-05
3.66437e-05
5.51853e-06
5.53902e-06
0.0381258
1.53989e-05
0.000439294
0.000140007
1.28607e-05
1.15184e-06
7.87799e-07
2.65869e-05
0.00199913
5.10967e-06
2.63261e-05
0.941027
2.05544e-08
0.000854221
9.21918e-06
0.00122754
1.15835e-05
0.000494089
9.47983e-05
2.23743e-05
5.18203e-06
2.13829e-05
2.05839e-05
0.00205763
6.7257e-06
5.13497e-06
5.20221e-05
1.68322e-05
0.000519365
1.26398e-05
1.7205e-05
1.13632e-06
6.12098e-07
0.00248144
0.00194283
4.36866e-05
2.64456e-05
2.72173e-05
2.26198e-05
2.91093e-05
1.03465e-05
0.00121411
4.62269e-07
1.34654e-05
0.00152577
1.58842e-05
0.0238256
3.54583e-05
2.02396e-05
1.83721e-07
0.00350923
1.4926e-05
5.94087e-06
4.52116e-06
1.27991e-07
3.49367e-05
1.0367e-05
2.7604e-05
4.65823e-05
3.35618e-06
4.22832e-05
1.62102e-06
4.80825e-06
1.08796e-05
6.43425e-06
4.94851e-06
1.92186e-05
3.446e-06
4.075e-07
4.95193e-07
3.62807e-05
3.57085e-06
1.77294e-06
0.000900688
3.85144e-06
7.52182e-06
0.0054645
8.86444e-05
5.42847e-06
0.00267484
0.00440926
3.48342e-05
1.50956e-05
0.000593804
0.00351311
7.16331e-06
0.000467948
0.00403205
3.32653e-05
0.00478112
3.60325e-08
1.39841e-05
9.18731e-08
7.53111e-07
2.72888e-05
0.000363742
1.49453e-06
2.0663e-05
4.8602e-05
9.57828e-05
1.95622e-05
1.54296e-07
1.41508e-05
5.46073e-06
1.07221e-05
2.63296e-08
1.49586e-05
7.09706e-06
5.08598e-07
1.20194e-05
2.21929e-07
0.00132078
0.00218124
8.31834e-06
3.45013e-07
0.000296558
0.000104619
0.00167963
0.000297786
2.54245e-05
3.30715e-05
7.25031e-06
0.000313963
8.11055e-07
0.000149536
1.85974e-05
2.67475e-08
5.07766e-06
1.18782e-05
1.3672e-06
1.30322e-05
6.01883e-07
3.27282e-05
0.00294865
1.5152e-05
7.85162e-06
6.02771e-06
9.08674e-05
2.05504e-05
2.40008e-05
0.0335575
1.89415e-05
1.39584e-05
5.01724e-07
7.90085e-06
9.22278e-06
0.000280123
1.39601e-05
0.00348472
0.00201299
0.0029873
3.79781e-07
0.000681184
1.84375e-07
1.80992e-07
1.69618e-05
2.03212e-07
1.13631e-05
1.64206e-05
1.28802e-05
8.86691e-06
6.67639e-05
7.83476e-07
1.23048e-05
4.10058e-07
0.00367349
5.95919e-06
3.74603e-05
2.79631e-07
0.000546754
2.22363e-05
8.58015e-06
0.00319562
0.0050732
1.08802e-08
0.00352491
4.24807e-07
8.52365e-06
4.95016e-06
1.81153e-05
2.15038e-05
1.01597e-05
8.2935e-06
0.00188563
6.80235e-06
2.44499e-05
8.11115e-05
2.51206e-05
4.30429e-07
1.35999e-05
2.0591e-05
2.29028e-05
0.00264916
2.95847e-05
1.0081e-05
0.000871957
5.01314e-06
2.05298e-05
1.31428e-05
3.4579e-05
0.000592137
0.00239059
3.28424e-07
0.000378401
2.33745e-07
4.54235e-06
0.000453176
6.89051e-05
3.67771e-05
1.98469e-07
5.29037e-06
7.16069e-06
1.64314e-05
9.17011e-05
0.000495587
2.15295e-06
1.05778e-05
1.37972e-05
2.27278e-05
0.000537259
9.14276e-06
0.3256
0.000138784
7.8174e-07
2.26805e-05
1.10758e-06
1.86459e-08
6.54072e-06
1.17299e-07
3.84804e-06
0.00224353
5.89305e-06
4.83005e-05
0.0203548
1.85768e-06
0.00187503
0.00647176
0.0018626
1.56421e-05
1.15179e-05
1.54662e-05
2.05601e-06
0.000768811
9.02566e-07
2.52474e-06
1.36819e-05
1.7075e-05
0.000458432
2.11203e-05
3.13257e-05
8.88998e-06
0.00330841
0.00189206
1.57358e-05
1.73451e-05
2.11181e-05
1.20702e-06
1.5341e-11
0.000546565
4.85582e-07
8.5232e-12
3.95645e-06
1.05283e-05
7.5948e-06
3.41211e-05
0.00053444
1.38317e-05
2.29676e-05
7.81072e-06
3.34344e-05
4.36822e-07
1.63589e-05
0.000113399
1.8684e-05
9.35531e-06
1.26604e-06
0.000358017
3.59748e-07
3.6226e-07
1.4677e-06
0.00054269
0.0005605
3.3491e-05
0.000270808
0.00218856
3.48215e-05
1.31636e-07
0.00221328
3.4792e-06
1.10835e-06
2.61294e-07
1.11248e-06
0.00053667
0.000920717
0.000355358
3.04059e-05
5.35663e-06
2.10865e-06
1.50492e-05
1.45903e-05
3.99877e-07
0.000181748
6.02756e-05
0.00160053
0.00244275
1.58326e-05
3.33985e-06
1.8931e-08
0.00122043
1.77349e-05
3.3427e-05
2.95269e-07
9.47585e-07
3.30447e-05
0.0017296
0.00187617
1.89794e-05
2.67905e-05
0.000579789
9.49161e-06
6.32082e-06
0.00284161
2.61579e-07
1.18012e-05
0.00198853
0.00410769
9.6364e-07
0.0022565
1.15371e-05
0.00147105
1.96879e-07
4.03553e-07
3.10507e-06
1.43883e-05
6.41842e-06
0.00244133
1.16286e-05
2.99587e-08
9.27438e-06
1.33718e-05
1.0802e-05
1.7292e-07
6.66411e-06
2.59323e-05
3.01049e-05
3.19602e-06
0.000767848
8.18995e-06
3.24901e-06
8.81111e-06
4.7805e-06
8.08592e-08
0.0023037
5.31869e-07
2.86738e-05
1.71581e-10
2.53674e-05
0.000347921
6.53356e-08
0.00208307
0.00199768
0.00523185
4.30604e-08
8.35448e-06
1.05698e-06
1.78587e-06
1.4867e-05
6.18181e-06
2.10519e-05
0.00529889
1.43711e-07
1.28256e-05
2.03885e-05
1.17196e-05
1.41369e-05
9.45256e-06
0.00144884
1.37612e-05
2.84763e-06
3.35639e-07
4.13437e-05
4.43051e-06
1.19106e-05
2.70173e-06
2.77521e-07
1.55372e-05
2.76249e-05
8.19531e-06
5.4608e-06
0.00621012
6.55565e-06
8.95179e-07
1.48969e-06
1.33384e-05
0.000441626
0.00118711
0.00250824
1.0999e-05
0.000601267
6.48557e-06