/*--------------------------------*- C++ -*----------------------------------*\
  =========                 |
  \\      /  F ield         | OpenFOAM: The Open Source CFD Toolbox
   \\    /   O peration     | Website:  https://openfoam.org
    \\  /    A nd           | Version:  8
     \\/     M anipulation  |
\*---------------------------------------------------------------------------*/
FoamFile
{
    version     2.0;
    format      ascii;
    class       volScalarField;
    location    "4e-05";
    object      epsilon;
}
// * * * * * * * * * * * * * * * * * * * * * * * * * * * * * * * * * * * * * //

dimensions      [0 2 -3 0 0 0 0];

internalField   nonuniform List<scalar> 
23640
(
8.77484e+08
4.76147e+09
1.16178e+08
2.69003e+09
5.39649e+09
2.08665e+10
3.36931e+09
2.41254e+09
3.05903e+10
1.60272e+11
4.61906e+09
1.08621e+10
6.00931e+08
4.58576e+09
1.10727e+11
1.57859e+10
3.64367e+08
3.71316e+10
1.32992e+10
3.29823e+10
6.71025e+09
3.46687e+08
6.92017e+09
1.63866e+10
4.04463e+09
5.02307e+09
4.84514e+10
3.09879e+10
1.91183e+08
1.33047e+09
3.95197e+08
9.93024e+08
6.71851e+09
2.07929e+10
3.5717e+10
1.9369e+11
3.84249e+08
2.71044e+08
1.28063e+09
7.74311e+09
1.51449e+10
2.89842e+10
4.4041e+09
7.96201e+08
2.31655e+09
7.92556e+10
5.70332e+08
6.65399e+09
1.56753e+11
2.34652e+09
2.13595e+08
2.9387e+10
1.92537e+11
2.86639e+08
2.64674e+09
3.27505e+11
2.8408e+10
8.70541e+09
1.30181e+09
4.29188e+09
3.85782e+08
5.66324e+10
2.93507e+09
2.63383e+10
1.65494e+09
2.68477e+10
1.00534e+10
4.69533e+09
6.73888e+10
4.50772e+09
5.94909e+09
2.00437e+10
1.43806e+10
3.09146e+08
2.12161e+10
3.44218e+09
8.00679e+11
5.75975e+08
1.28213e+10
2.96609e+09
8.22338e+10
7.19208e+10
1.54476e+09
1.57237e+09
1.61611e+09
2.60963e+11
3.02488e+10
2.29534e+10
2.30857e+10
9.19711e+10
2.11298e+09
8.78096e+09
7.77642e+10
1.29689e+10
2.9177e+10
1.06749e+09
2.46955e+10
2.46176e+11
8.35713e+09
1.00535e+11
6.59917e+10
2.78039e+08
2.48338e+10
1.80263e+08
3.00454e+10
2.62107e+08
5.5272e+09
1.95236e+08
1.19559e+10
9.85508e+09
3.25137e+08
1.389e+10
1.23892e+10
1.4586e+10
3.83972e+11
1.15359e+08
1.21526e+11
2.81418e+08
7.92775e+08
1.43295e+09
3.90286e+10
8.74456e+08
2.81368e+11
8.22142e+08
5.09795e+10
1.19416e+10
1.66034e+08
1.27907e+11
2.01193e+10
1.31056e+10
3.26093e+10
5.86619e+10
5.97097e+08
5.42882e+10
2.76263e+08
2.74181e+10
5.27469e+09
4.38962e+09
4.80156e+09
2.17495e+10
9.23487e+09
2.92515e+10
1.5676e+10
4.57724e+09
2.01111e+10
6.8399e+09
4.04809e+09
5.82353e+09
2.22268e+09
6.97074e+10
2.38593e+09
3.70446e+10
1.66506e+09
2.60107e+09
4.53676e+10
2.17201e+08
3.40037e+09
1.6609e+10
9.35455e+09
4.85456e+10
8.62866e+10
2.42608e+11
2.0698e+11
8.30716e+09
1.13103e+08
8.35857e+07
6.07519e+09
1.60516e+11
5.04356e+09
5.72078e+10
6.3139e+09
3.72714e+11
2.07933e+10
1.17345e+10
3.35669e+09
3.60778e+09
1.32449e+10
3.84239e+11
2.94944e+09
1.45552e+09
2.29418e+09
1.68294e+11
4.27536e+09
3.12429e+10
2.68847e+08
5.23617e+10
5.03879e+10
5.7194e+10
5.67184e+09
3.34107e+10
3.37332e+10
4.51987e+09
1.13493e+09
1.63348e+09
2.06442e+08
1.05147e+10
3.02156e+10
4.89515e+10
1.59031e+11
7.63028e+10
8.05867e+09
4.42132e+08
3.46952e+08
2.84341e+10
1.06044e+10
1.58177e+09
1.52718e+11
6.90343e+09
2.66962e+11
4.79152e+09
4.76634e+09
4.70373e+09
1.02811e+09
1.60896e+09
3.60167e+10
9.24605e+09
7.72995e+09
3.21012e+10
6.50336e+09
3.29877e+08
1.05936e+09
4.67601e+09
7.95798e+09
1.15251e+10
1.44686e+10
1.14611e+10
6.89474e+09
8.83364e+08
4.21648e+08
2.08163e+09
9.05768e+08
2.16038e+08
2.84538e+10
5.09791e+09
1.60719e+10
6.93612e+10
5.81181e+09
9.403e+09
2.20641e+09
1.17846e+11
6.73762e+10
2.81629e+11
1.56504e+10
2.66646e+10
2.64691e+09
2.1488e+08
1.59446e+09
2.89174e+11
2.78355e+09
1.46376e+10
3.98662e+09
6.45871e+09
5.67105e+08
3.44237e+09
1.34833e+09
7.63225e+09
3.55388e+08
2.24235e+08
4.49761e+09
5.12518e+09
2.63818e+09
3.35996e+08
5.87796e+10
1.09917e+10
3.20574e+08
4.40435e+09
4.83376e+10
7.71013e+09
1.36708e+09
3.37387e+10
5.74428e+10
1.49065e+08
4.71216e+10
5.07006e+09
1.39534e+11
1.97489e+10
2.87784e+08
9.03423e+08
2.54847e+10
1.14914e+10
1.24759e+10
3.73752e+08
5.89386e+10
4.22283e+09
1.49469e+10
6.12582e+10
5.46091e+09
4.66996e+10
4.70063e+09
4.30312e+09
1.74188e+09
3.16387e+08
9.34419e+09
6.4878e+09
4.90576e+09
4.21694e+09
1.21568e+10
3.26545e+08
6.14855e+09
7.16326e+08
1.64471e+11
2.5205e+10
7.73977e+08
8.91306e+09
5.65402e+09
1.24996e+08
6.0158e+10
7.35873e+10
2.63037e+09
1.58123e+10
1.75765e+08
1.00852e+11
3.33736e+09
1.29689e+10
8.36236e+09
4.90015e+10
5.29884e+10
1.68902e+08
2.82057e+10
1.38001e+10
1.10772e+09
1.91543e+10
3.69555e+10
3.0267e+10
2.79975e+08
1.44999e+11
3.46432e+10
4.68197e+09
1.45384e+09
3.60772e+08
7.39083e+10
2.41538e+09
3.2029e+10
4.17844e+10
4.20828e+09
8.21367e+09
1.70774e+11
4.91748e+10
3.97146e+09
5.99355e+09
3.26683e+11
2.38264e+10
4.42163e+10
1.01726e+09
4.919e+09
4.0129e+10
6.02609e+10
9.56277e+09
1.12247e+10
2.77256e+10
5.03042e+09
1.40436e+11
2.16295e+08
2.73098e+08
3.41813e+10
1.09803e+08
2.07012e+09
3.14051e+08
3.00353e+09
4.59436e+09
5.05589e+10
5.83632e+09
2.21944e+10
6.25593e+08
9.42206e+09
1.59911e+08
1.21929e+08
7.06619e+10
1.2846e+10
1.3785e+09
2.62589e+11
5.96693e+10
1.72106e+08
8.10783e+09
4.98736e+10
2.07399e+08
7.28383e+09
2.91972e+08
4.81455e+09
4.65715e+10
1.43531e+10
5.91832e+10
8.88904e+09
2.324e+10
1.11e+10
2.6838e+08
1.10051e+11
7.75584e+07
9.2537e+09
1.36076e+08
3.63804e+10
4.15054e+10
4.76989e+11
1.83114e+11
6.34686e+10
1.10243e+10
1.00602e+09
3.41373e+08
5.38231e+08
6.77977e+10
1.86557e+09
6.05428e+09
3.39216e+10
1.42625e+08
5.80787e+08
6.39535e+09
3.67081e+09
2.08034e+08
8.16349e+10
9.70793e+09
4.73678e+10
2.79978e+09
3.95208e+09
4.9721e+10
3.99248e+09
1.43445e+10
6.2858e+10
7.42344e+08
4.85662e+10
2.37992e+10
4.33326e+09
3.62121e+10
6.19838e+09
4.9993e+10
1.77378e+11
1.20704e+08
9.67108e+08
2.97578e+11
5.74179e+09
3.19062e+09
3.4668e+08
2.20557e+09
4.60869e+09
7.37772e+09
3.97057e+10
4.79834e+09
2.45938e+11
1.05591e+11
1.50588e+11
9.31217e+09
4.24916e+10
3.14383e+09
1.99644e+11
1.80525e+11
4.29942e+10
7.9695e+09
6.51829e+10
6.5451e+10
6.7869e+09
7.1952e+10
1.77277e+06
9.72815e+09
3.36264e+09
3.9395e+10
6.62242e+10
2.92043e+08
4.03913e+09
5.79053e+10
5.88093e+09
9.71034e+10
4.74549e+10
1.46048e+10
1.42309e+10
1.31742e+07
8.42882e+10
1.44591e+09
1.36186e+11
4.74123e+11
9.13894e+10
3.48816e+10
3.06093e+10
1.45963e+09
2.55306e+09
2.71418e+08
1.54719e+09
6.46763e+10
4.45077e+09
5.51063e+07
9.55464e+10
4.73893e+09
6.78627e+09
2.84919e+08
2.29326e+10
1.7527e+11
5.49997e+10
2.76357e+11
8.48408e+09
4.78436e+08
4.09108e+08
4.96366e+08
4.55127e+10
7.32835e+09
5.60185e+08
1.62331e+10
4.75582e+09
6.36773e+09
7.47383e+10
8.6452e+10
3.43577e+11
3.99319e+08
1.01407e+09
3.13881e+09
1.23356e+08
7.42896e+09
1.25392e+09
1.33202e+09
6.63269e+10
1.56148e+08
3.05985e+08
6.01315e+08
7.17869e+10
1.05933e+09
2.00027e+11
2.7833e+11
7.76778e+09
1.43595e+10
1.34871e+10
2.0877e+08
2.54818e+10
3.84285e+09
5.1365e+10
3.9696e+10
1.1473e+06
1.29083e+11
4.71472e+09
1.28104e+10
9.0169e+09
4.72038e+10
1.39112e+10
1.28997e+09
7.26961e+09
1.34363e+10
9.8459e+10
7.21118e+10
4.66109e+11
7.6257e+08
1.8535e+11
5.75567e+10
1.99629e+08
4.42529e+10
5.50152e+09
1.29729e+09
5.00981e+09
6.06627e+09
3.4797e+08
4.44516e+09
1.20903e+11
1.94525e+10
2.7152e+09
2.72563e+09
1.2966e+11
5.23984e+09
6.0106e+11
3.53671e+08
1.5214e+11
9.05834e+08
5.612e+09
2.75563e+11
5.29209e+09
3.18677e+09
3.33375e+09
5.3329e+09
8.09251e+09
7.79944e+10
1.91423e+10
7.29657e+09
1.8114e+10
9.40252e+09
3.51425e+11
1.11909e+11
2.57064e+06
4.80036e+09
4.68669e+09
2.34136e+08
2.6907e+08
1.29989e+10
2.78782e+11
2.57866e+11
3.84308e+10
4.87933e+08
2.08948e+09
6.34864e+09
3.0391e+08
4.91083e+10
1.25725e+10
2.22647e+10
4.21671e+09
3.79211e+10
4.92154e+09
9.24451e+09
2.7835e+09
3.82601e+09
1.43239e+10
2.47179e+10
1.31832e+09
2.75244e+10
3.02027e+10
5.55679e+10
1.4703e+09
9.52961e+10
4.02089e+09
6.59911e+09
4.88774e+09
1.02889e+11
1.33264e+09
1.33059e+11
6.7114e+10
1.1136e+09
1.33215e+10
9.28561e+09
1.36843e+09
2.44936e+09
1.00932e+10
2.07286e+09
2.47171e+10
6.53736e+10
4.84789e+11
8.72014e+09
3.43898e+08
9.70109e+08
1.08649e+10
1.24106e+10
2.1281e+10
2.76319e+09
5.93393e+09
3.03362e+10
7.07029e+09
7.72937e+09
1.13285e+09
1.87877e+11
1.61587e+08
7.2418e+09
2.02399e+09
1.45196e+09
2.07478e+08
2.68983e+09
1.04462e+09
7.60721e+09
3.44962e+08
1.01298e+11
2.51332e+10
2.802e+11
5.46345e+09
5.61526e+08
1.7745e+11
6.47572e+09
7.96735e+09
5.64712e+10
2.50577e+08
9.83955e+09
9.24035e+10
1.13809e+09
2.26381e+10
1.90931e+09
3.08297e+10
1.00009e+10
3.24605e+11
8.32382e+09
6.51175e+08
3.99229e+09
2.25268e+10
9.17695e+10
1.20361e+08
1.63928e+11
4.27106e+08
6.37017e+08
1.57444e+09
1.46994e+09
2.02609e+10
1.25352e+10
8.94143e+08
8.3238e+09
7.05581e+09
9.23068e+10
2.41673e+10
3.44571e+08
7.695e+08
5.39257e+09
4.91934e+08
3.10299e+09
4.54652e+09
5.13416e+09
5.72403e+09
8.51323e+08
1.57142e+10
2.02625e+08
3.21949e+09
1.88794e+10
8.97315e+10
9.41613e+08
1.83471e+08
1.59997e+11
8.31361e+10
2.95298e+09
4.16039e+10
3.8221e+08
4.5825e+10
2.4575e+10
9.13308e+09
1.18177e+10
3.85311e+09
2.5053e+10
2.34935e+10
1.79407e+10
3.20793e+08
2.92759e+10
1.01818e+10
5.77545e+10
5.42053e+09
7.0911e+10
1.25204e+10
1.15537e+10
2.56397e+11
2.96864e+08
4.9213e+08
1.74005e+11
3.75479e+10
5.28045e+09
7.60309e+09
1.64168e+11
4.51443e+10
6.35957e+10
5.22948e+10
2.89802e+08
4.08272e+10
4.34003e+07
2.79602e+08
2.2515e+08
2.32815e+10
2.62729e+09
7.31761e+09
3.23068e+08
3.17844e+09
7.36183e+09
1.92176e+08
1.09418e+10
3.70694e+11
1.4396e+10
3.09187e+09
7.74158e+09
4.21858e+09
1.57145e+10
3.05487e+09
2.45012e+11
1.55534e+08
8.28025e+10
3.36775e+08
7.54907e+10
1.51379e+08
1.09378e+09
4.29398e+10
1.16299e+08
3.1974e+09
8.7354e+08
2.93785e+09
5.27941e+07
4.61657e+10
2.07777e+08
3.18754e+10
7.49394e+09
2.55564e+08
1.31085e+09
8.40976e+10
2.69803e+09
3.36712e+09
2.41582e+11
3.87742e+09
2.10332e+10
1.85703e+10
4.04284e+10
4.45399e+10
1.80005e+10
9.20677e+10
1.31679e+10
2.26236e+10
6.35839e+08
4.42792e+09
4.15059e+09
3.56434e+10
2.02638e+11
4.49943e+10
8.01679e+08
3.149e+08
2.03466e+11
2.25867e+11
8.06632e+09
5.61658e+10
1.4139e+08
3.34874e+10
1.23313e+10
2.79009e+08
1.56388e+11
2.02667e+10
1.17138e+09
5.85308e+08
9.03817e+09
6.42528e+09
3.19919e+09
5.51118e+08
8.05597e+09
1.93018e+10
3.4925e+10
4.72544e+09
3.09939e+08
6.53294e+10
8.8433e+09
5.31754e+09
1.25006e+10
3.73168e+09
1.02275e+09
2.08229e+11
1.67142e+10
5.67017e+09
3.92091e+09
1.59684e+11
4.30567e+10
3.26102e+09
1.91701e+11
1.09315e+11
1.34918e+10
4.84858e+09
6.82789e+11
1.14092e+11
3.13208e+10
1.80446e+11
6.18623e+09
3.30129e+10
3.8352e+08
4.98133e+10
7.90512e+10
9.12965e+08
4.59543e+10
3.62747e+08
2.45097e+10
1.27743e+10
4.67329e+09
2.34293e+10
4.14816e+10
2.67011e+08
7.18343e+08
2.44225e+10
2.58492e+10
5.28415e+09
2.03316e+10
1.88442e+08
2.66608e+08
2.59893e+09
9.41052e+08
8.40574e+09
5.47084e+09
1.2673e+09
5.62511e+08
9.70596e+10
1.5954e+09
1.49885e+10
2.3601e+06
7.41959e+09
6.33923e+10
2.16681e+10
8.60773e+10
8.60299e+10
7.22633e+08
1.4091e+09
1.74349e+10
5.26793e+10
5.55505e+08
5.4079e+09
3.08733e+08
1.92869e+09
1.23603e+11
1.65409e+11
5.57248e+09
3.14205e+09
5.34066e+09
1.31115e+08
2.1876e+08
2.80586e+10
2.5765e+11
2.37802e+08
1.30868e+08
4.21999e+10
1.10756e+09
2.4942e+10
4.29154e+08
2.52387e+11
3.79287e+10
3.00662e+09
3.25419e+10
3.19783e+09
2.12761e+09
3.89357e+08
5.24729e+10
1.40627e+10
4.38074e+11
1.9362e+10
4.29619e+10
2.48806e+11
5.37609e+09
4.6182e+08
1.46659e+10
8.51799e+09
2.00141e+11
4.43129e+09
4.17804e+08
6.78539e+10
2.6143e+08
5.9758e+10
5.28609e+09
1.58809e+10
2.11561e+08
1.72508e+11
1.41216e+08
1.66366e+11
5.28266e+10
2.10484e+10
1.05296e+09
4.9705e+10
4.09208e+09
9.75255e+09
3.39005e+09
6.9083e+10
2.32152e+10
1.36957e+09
9.12001e+09
1.22247e+08
1.2318e+11
2.1782e+08
4.46316e+09
2.03966e+11
1.59915e+10
2.50303e+10
1.33071e+10
7.51691e+07
2.28978e+10
2.52657e+09
6.96545e+10
1.59776e+11
1.2633e+09
8.20898e+09
2.9639e+09
4.25393e+11
1.33695e+08
1.53578e+11
2.46807e+10
3.3477e+09
5.4837e+10
4.51879e+09
6.55562e+10
1.855e+08
3.48944e+08
1.19442e+10
4.74139e+09
2.40179e+08
1.97224e+11
2.69747e+09
1.12769e+09
5.79498e+09
9.11189e+08
4.80171e+09
1.57181e+08
3.29366e+10
1.9149e+09
1.05164e+10
1.30831e+09
1.38348e+10
4.81072e+09
6.34243e+09
8.43904e+09
1.39062e+09
5.07209e+09
6.47088e+09
6.77581e+08
4.5687e+09
5.18006e+09
2.00063e+11
6.18287e+08
1.84908e+10
1.98483e+11
1.9454e+10
3.59487e+09
4.79447e+11
2.51176e+09
1.22714e+10
6.76126e+09
5.18322e+09
1.36465e+10
4.59435e+08
7.81396e+08
7.78376e+09
1.35646e+10
1.21848e+09
3.2295e+09
4.55683e+09
1.89176e+10
5.7812e+09
3.51069e+09
7.61234e+09
1.31595e+09
1.29138e+10
4.35762e+10
3.37156e+10
1.29113e+09
3.57763e+10
3.46551e+10
8.04074e+10
5.85617e+10
1.1387e+11
2.03073e+08
2.43528e+11
3.46552e+11
3.30719e+08
1.30724e+09
3.31431e+08
3.19781e+09
1.49269e+10
3.48362e+10
2.74728e+09
3.54925e+09
2.50253e+10
6.98277e+11
1.20894e+10
1.71192e+09
1.55611e+08
9.84247e+09
3.7497e+10
6.99784e+08
3.68997e+09
4.21167e+09
9.70614e+10
5.74185e+09
1.78311e+10
4.21284e+10
3.06648e+09
2.4486e+10
3.63419e+08
1.75723e+09
6.82583e+08
7.44983e+10
2.25559e+09
5.62299e+08
1.369e+09
4.33966e+09
1.51149e+11
3.30416e+09
3.18292e+08
9.02855e+10
4.20026e+10
6.41116e+10
1.84343e+09
3.50913e+10
2.97931e+09
8.91869e+09
2.31056e+09
1.16401e+10
1.32055e+10
1.38974e+09
3.28841e+10
3.27493e+09
7.16443e+11
1.75502e+10
1.1423e+10
1.60282e+10
6.62408e+08
2.74336e+09
5.57409e+09
1.74643e+09
2.94077e+08
6.10556e+10
6.65797e+10
6.55924e+10
4.99567e+09
1.40999e+08
1.71628e+11
3.25129e+11
1.89579e+11
3.8915e+09
5.24336e+10
3.77911e+08
2.68833e+09
9.65385e+09
5.96617e+08
1.78777e+11
3.33514e+10
5.0059e+10
3.81231e+11
1.19677e+11
8.95555e+10
1.1689e+10
5.73921e+09
1.61652e+10
3.02603e+10
3.8768e+09
1.00791e+09
7.92058e+10
3.98221e+11
1.02119e+09
7.02247e+08
3.99653e+08
1.28328e+11
4.3184e+09
1.25766e+10
2.42596e+08
4.63753e+08
2.63365e+09
2.97512e+08
7.26638e+09
6.43538e+09
8.39907e+08
2.937e+09
6.37372e+10
2.05426e+10
7.05448e+09
4.22204e+08
4.42684e+08
3.23962e+09
7.29904e+09
7.84816e+10
4.32715e+10
2.79983e+11
3.35277e+10
5.04295e+09
5.66821e+08
1.13341e+09
1.98576e+08
3.54253e+08
6.37903e+08
1.29372e+09
2.05467e+10
1.27738e+09
2.16651e+09
1.23306e+10
3.15561e+11
3.19398e+11
3.51863e+09
1.51003e+09
1.87889e+08
3.93952e+08
5.30302e+09
1.4593e+11
2.35602e+08
2.50031e+10
2.50071e+11
1.21014e+08
4.43239e+09
5.59854e+09
2.33117e+11
2.6464e+09
7.62825e+09
3.53112e+08
5.1095e+10
3.60386e+10
3.19268e+08
1.71863e+09
2.66714e+09
2.18727e+10
1.97174e+08
7.37768e+10
2.18863e+11
3.17773e+10
5.70795e+09
1.9782e+10
1.75667e+11
2.87676e+10
3.68361e+08
1.19302e+11
4.57482e+10
1.8073e+10
2.32489e+10
2.24137e+10
4.04102e+10
2.50159e+10
2.63697e+11
5.02637e+10
4.5289e+11
1.79235e+11
8.15152e+10
1.21141e+09
1.19003e+10
5.08435e+10
3.80958e+09
7.74204e+08
1.3363e+10
1.00453e+10
1.65851e+08
4.12361e+08
8.82862e+09
1.82739e+11
1.05559e+08
1.51497e+10
8.64258e+08
2.4526e+10
1.16745e+09
8.17671e+09
5.17132e+09
2.83503e+09
8.33667e+09
3.0399e+08
2.16397e+06
3.21421e+09
3.96655e+09
6.21312e+09
3.00742e+10
3.89355e+09
1.13015e+10
1.55825e+08
3.44245e+10
2.29459e+11
1.1551e+10
5.64703e+11
4.30537e+09
1.11821e+08
1.18157e+10
7.10204e+09
8.2149e+09
1.186e+09
6.40432e+09
3.98838e+08
3.66954e+10
7.60654e+08
2.72599e+08
5.09285e+09
2.34651e+11
1.27574e+09
3.98265e+10
4.9262e+09
1.75016e+10
2.93755e+09
8.15559e+10
2.44391e+09
4.431e+10
1.2128e+11
4.31576e+09
1.70829e+10
1.46412e+09
6.40653e+07
4.25603e+09
1.01159e+10
2.75168e+08
3.95414e+08
7.1152e+09
1.19859e+10
4.40333e+10
1.76952e+10
5.91228e+09
8.51363e+10
3.21846e+08
6.7252e+09
3.67164e+10
6.51157e+09
2.31151e+11
1.07525e+11
2.92723e+11
3.47631e+10
1.92773e+08
1.56379e+11
3.77146e+10
3.39355e+08
1.60853e+09
3.70287e+08
4.15703e+10
3.77191e+09
1.43343e+10
2.40043e+10
4.06601e+10
6.10519e+10
1.31324e+09
6.1705e+09
4.92367e+08
1.88276e+08
1.68573e+09
1.01393e+10
8.94831e+08
4.35816e+11
7.19259e+07
6.22421e+09
3.73271e+09
4.78441e+10
3.87024e+09
2.18286e+10
1.05254e+09
7.63495e+10
3.56788e+10
1.627e+10
5.54681e+09
9.50985e+10
7.30436e+08
3.95245e+08
4.44502e+08
1.9829e+11
4.70418e+10
1.42089e+10
5.68543e+10
1.7495e+11
1.23172e+09
4.51897e+11
5.09486e+10
1.38854e+10
2.16418e+09
2.33038e+08
7.96428e+09
8.11848e+09
3.25555e+08
2.44808e+11
3.92287e+08
3.49592e+08
1.5254e+09
1.23764e+06
9.68168e+10
1.19712e+10
3.36394e+10
1.37446e+10
4.87505e+09
3.82483e+09
1.8793e+09
1.73395e+11
3.17554e+10
8.11668e+09
3.25851e+09
7.39077e+09
4.02663e+08
3.22715e+10
3.34621e+08
2.611e+08
4.11477e+10
1.01062e+08
4.44383e+10
2.06311e+08
6.06914e+09
4.4506e+11
4.17466e+10
3.58159e+09
1.10818e+10
8.37296e+09
1.41975e+10
4.59702e+09
1.90412e+09
9.84148e+10
1.059e+10
3.05048e+09
3.2167e+09
1.48179e+08
1.59219e+08
8.81814e+08
2.66425e+08
3.67318e+08
3.36359e+10
5.43922e+10
5.4526e+09
1.57837e+11
3.07291e+09
1.47913e+11
2.15965e+10
3.00062e+08
4.40965e+10
2.34562e+10
1.83766e+08
6.26853e+09
9.27373e+10
1.60404e+11
6.22472e+10
4.20202e+11
1.69409e+10
5.46628e+08
3.89554e+09
2.19077e+10
1.71268e+09
1.48652e+09
1.814e+09
2.96334e+09
3.52741e+08
1.51602e+08
2.31562e+08
4.87545e+09
1.25699e+10
8.63201e+10
1.90273e+11
1.35979e+10
4.93921e+09
1.46453e+09
3.12313e+08
2.88091e+09
6.6185e+09
3.16445e+08
6.53244e+10
7.76274e+10
2.67554e+11
3.29171e+10
6.05589e+10
3.46445e+09
5.18833e+10
6.30957e+09
2.21498e+08
1.9772e+10
1.2651e+11
1.56827e+11
6.01861e+09
3.87233e+10
4.9056e+10
1.75539e+10
8.02457e+10
6.35219e+10
3.36398e+08
6.62917e+09
1.99725e+10
8.83066e+10
1.94851e+10
1.49472e+08
3.83054e+09
2.98911e+10
8.17485e+10
5.66686e+09
1.45438e+08
2.50626e+11
4.08492e+08
1.13439e+10
1.06083e+10
2.24953e+08
7.20404e+09
4.51072e+10
3.85727e+09
4.38664e+09
2.48679e+10
7.57473e+10
3.02548e+09
1.24884e+10
7.75561e+09
4.29556e+10
3.3833e+10
1.0377e+10
4.03226e+10
6.152e+08
7.32623e+09
3.49749e+08
1.95774e+11
3.8008e+08
8.69518e+08
4.69967e+11
2.94e+08
9.55838e+09
9.87575e+07
5.23808e+09
8.25926e+08
6.7298e+10
1.05181e+10
1.84517e+09
4.38636e+08
2.10832e+08
1.05553e+09
7.60494e+09
3.1597e+11
5.83879e+08
7.54682e+09
5.79246e+08
2.52782e+10
1.88023e+09
8.10287e+10
3.42847e+10
5.26386e+11
2.4038e+09
8.90502e+09
6.12345e+09
1.76153e+08
1.1303e+07
5.41998e+08
2.05473e+10
1.50109e+11
3.8149e+09
5.39981e+09
9.5125e+10
3.49006e+10
5.59801e+09
1.11578e+10
2.94348e+11
5.68761e+10
4.18452e+09
1.95991e+10
7.62349e+09
3.40674e+10
4.38603e+10
7.37197e+08
5.24613e+10
2.4598e+10
3.47307e+09
2.90553e+09
1.17923e+11
4.15268e+09
1.76813e+10
2.33499e+10
1.29979e+11
5.83652e+09
5.26009e+10
5.52856e+09
2.94202e+08
4.06309e+08
3.78731e+09
5.9591e+09
2.63828e+10
6.29044e+09
1.01064e+09
4.90241e+09
4.35863e+09
1.32181e+11
8.72454e+09
2.6496e+09
2.13932e+09
3.26378e+09
4.763e+09
2.92147e+08
4.00904e+10
1.92621e+10
1.53293e+10
2.29901e+10
6.05278e+10
3.23759e+09
1.16336e+09
2.38435e+10
1.48005e+11
1.2226e+11
1.20878e+10
3.18584e+09
2.68854e+09
6.86732e+09
3.69097e+09
1.82915e+06
3.17696e+08
2.38636e+09
4.04526e+10
2.39313e+10
8.62625e+10
2.30795e+11
2.50355e+08
2.24924e+08
1.44488e+11
2.779e+09
7.64354e+09
2.25005e+11
1.23266e+10
2.98798e+09
4.63588e+09
1.13927e+10
6.71456e+09
1.56885e+08
1.11772e+11
3.72833e+09
3.19516e+09
6.50671e+08
2.01003e+10
1.60897e+10
4.60138e+10
7.28567e+08
5.56125e+09
1.1622e+11
5.04436e+09
6.00534e+08
4.0629e+10
5.41622e+11
4.75528e+09
1.71151e+08
3.06369e+09
9.29114e+09
1.22478e+11
2.17177e+11
3.9848e+10
1.03122e+10
8.448e+10
2.59153e+09
4.75362e+10
5.45346e+09
4.90952e+09
1.66539e+10
2.07461e+11
3.39671e+10
3.08309e+08
3.36056e+08
9.26535e+09
1.6448e+10
8.407e+09
4.11275e+06
5.35537e+09
8.29823e+09
9.84969e+10
3.38636e+09
1.62754e+09
1.09541e+10
1.60103e+10
3.19049e+09
6.17991e+10
1.4342e+09
2.65037e+10
3.61917e+10
2.68968e+09
2.71698e+10
2.18618e+10
7.6693e+10
4.42632e+09
2.77169e+10
1.49741e+11
1.35992e+09
8.16381e+10
4.0695e+10
2.06548e+10
3.14479e+09
4.1792e+10
3.01909e+10
4.22752e+09
1.57249e+11
3.42002e+09
3.5809e+09
4.96699e+10
1.01585e+08
1.28131e+11
1.37537e+09
2.93725e+10
1.99258e+11
5.87139e+09
1.27654e+09
2.37446e+11
5.7605e+08
5.82935e+10
1.45207e+09
2.12621e+11
2.82997e+09
2.93864e+09
3.99939e+08
3.6167e+10
2.75983e+09
5.79616e+08
3.2479e+10
1.29732e+10
9.14995e+09
7.79127e+10
2.51918e+08
3.13851e+09
1.56609e+10
8.97103e+09
4.66648e+10
5.27207e+10
3.32719e+09
4.79685e+10
2.35621e+09
3.82505e+10
7.94278e+08
4.6237e+10
4.09626e+09
5.5265e+10
5.42166e+09
1.96496e+09
4.09576e+09
9.7959e+09
2.13529e+09
2.60861e+09
4.25283e+08
8.63141e+08
1.66045e+10
8.17192e+09
2.72615e+09
1.71234e+08
2.21156e+10
1.28131e+11
1.2119e+10
3.91167e+09
3.97026e+10
4.11546e+09
2.15378e+08
7.30653e+08
4.16995e+09
2.17659e+10
3.39865e+10
1.29238e+09
2.89019e+08
5.05111e+08
6.5938e+08
5.55797e+10
5.52295e+10
1.13479e+09
7.14026e+10
8.10048e+08
1.57222e+09
2.90606e+08
1.24152e+09
1.12092e+09
4.21509e+08
1.17617e+11
1.01178e+11
7.1961e+08
1.58782e+10
4.19145e+09
1.03026e+10
5.00765e+09
7.79906e+09
5.32842e+10
1.93051e+10
3.76995e+10
3.24608e+09
4.01074e+09
4.4456e+08
1.91068e+10
1.02478e+09
1.87434e+08
3.67519e+10
1.78572e+09
5.61251e+08
1.12796e+11
1.21822e+08
3.12488e+09
1.60418e+09
9.71362e+09
3.5572e+10
2.21988e+09
1.63141e+10
4.71741e+09
8.69454e+09
4.78681e+09
7.58123e+09
1.02771e+10
1.74854e+10
4.38447e+10
3.76835e+06
8.09834e+09
2.83567e+08
9.93524e+09
7.79442e+09
1.62576e+10
1.80528e+09
2.70974e+09
6.30948e+09
5.28193e+09
3.05064e+09
6.06977e+08
1.76034e+08
4.5221e+11
6.08789e+09
1.28056e+11
8.45022e+10
8.2857e+09
4.22298e+11
6.29261e+09
1.45833e+08
3.37804e+08
4.19061e+09
1.95169e+10
4.81554e+09
2.57408e+10
7.19866e+09
5.22786e+09
3.57337e+09
2.52451e+11
1.08918e+11
1.5369e+09
8.61656e+08
2.99289e+09
4.09718e+09
4.99532e+10
6.49354e+10
7.32711e+10
8.59667e+10
2.77455e+11
3.66154e+09
2.05468e+07
8.09553e+09
3.67422e+10
1.69114e+10
5.86318e+08
5.78513e+10
2.73283e+09
2.6616e+09
9.5844e+07
1.6522e+10
2.68776e+10
5.6547e+09
3.31513e+10
7.67809e+09
3.40343e+10
6.88576e+10
5.36829e+10
1.10971e+08
1.07347e+10
4.9196e+10
3.14598e+09
1.87289e+09
3.43937e+09
1.0306e+11
5.47384e+08
3.14637e+08
2.72167e+09
5.17144e+10
3.0917e+09
4.45498e+10
3.36152e+10
4.83367e+10
4.49578e+09
1.89623e+10
4.91825e+10
5.78437e+09
1.99639e+11
5.70067e+09
2.82152e+10
6.70604e+10
7.4881e+09
2.23539e+11
3.1051e+10
7.33014e+09
9.84747e+08
1.78844e+10
1.63163e+10
5.25544e+10
5.37836e+10
4.60993e+08
4.41647e+09
3.05606e+10
3.51613e+08
1.58518e+08
6.53398e+09
1.486e+09
1.21505e+11
1.74847e+08
4.42858e+10
5.85746e+08
1.98419e+10
2.0108e+10
3.35783e+10
7.02113e+10
7.07674e+09
2.63139e+08
1.15871e+08
1.79515e+09
3.59376e+10
1.30337e+09
5.62938e+09
1.54241e+10
2.81684e+09
3.28502e+09
3.1494e+09
1.57418e+08
3.81819e+09
5.52785e+09
2.93539e+08
7.18551e+09
7.25394e+09
2.15454e+10
8.41031e+08
1.4837e+08
1.04897e+08
2.17811e+08
1.31378e+08
1.80616e+08
2.52882e+08
9.37039e+07
1.16659e+08
9.96395e+07
2.51451e+10
5.55907e+10
1.41294e+09
1.55613e+08
2.42904e+10
3.1408e+08
2.76434e+06
8.09419e+08
2.02066e+08
1.9109e+10
3.48036e+08
9.19697e+09
3.37666e+08
4.05797e+10
3.29614e+08
3.46061e+10
3.6527e+10
1.42977e+08
9.76044e+09
4.76654e+09
1.96866e+10
9.58103e+10
5.93227e+10
1.14654e+11
1.26423e+10
1.52296e+10
2.93455e+08
1.64609e+11
3.87994e+09
1.47495e+10
7.63312e+10
1.64492e+11
2.84055e+09
8.08352e+08
1.08925e+09
6.66256e+08
5.8822e+08
1.5835e+08
7.62077e+08
1.58897e+10
1.70013e+09
2.37456e+08
3.76241e+09
2.21936e+11
5.39381e+09
9.86162e+09
5.09618e+10
4.90702e+09
1.3331e+09
5.28918e+09
4.94193e+10
1.68331e+10
3.54987e+08
1.01818e+11
1.57785e+08
9.27654e+09
2.81604e+09
1.27605e+09
3.98279e+09
1.19307e+09
3.90945e+08
2.5885e+09
8.67802e+10
9.48106e+10
1.56466e+10
2.10739e+10
2.18399e+09
2.04998e+08
1.47886e+10
7.61839e+08
1.92377e+11
3.46381e+10
5.19072e+11
6.77587e+10
5.28036e+10
2.54594e+09
5.55612e+10
3.92107e+10
1.23269e+09
3.37022e+10
2.69064e+10
3.35082e+09
3.34883e+09
7.64696e+09
4.69018e+09
4.96987e+09
4.07361e+08
2.15589e+10
4.21196e+09
1.32512e+11
3.01157e+11
1.07384e+09
5.56657e+09
4.87016e+10
2.42307e+08
3.90352e+08
1.29393e+10
2.48143e+10
4.69078e+10
6.75572e+09
1.50213e+10
2.55008e+07
3.44873e+09
8.82778e+10
4.96565e+09
4.66717e+09
1.41135e+10
3.88141e+08
2.5679e+09
3.88177e+10
6.68975e+10
2.41106e+10
2.57214e+09
2.76641e+09
2.03547e+09
2.28058e+09
2.3203e+09
1.19588e+10
2.32674e+10
1.35513e+09
2.87783e+08
2.5422e+11
8.78678e+09
4.31819e+11
2.04238e+11
1.4559e+11
3.27305e+09
5.46119e+10
3.77429e+08
2.32717e+10
3.1107e+09
5.92389e+10
4.34121e+11
3.68745e+09
1.26721e+11
4.99897e+10
3.78695e+10
1.08655e+11
9.091e+09
3.31978e+08
9.7313e+09
3.57033e+09
2.48455e+08
2.0714e+11
1.52588e+11
5.17298e+10
1.96525e+10
3.30657e+07
7.41826e+08
4.20803e+09
5.14846e+09
6.3446e+10
2.04992e+09
3.29759e+08
9.81077e+09
1.54829e+09
4.93408e+10
1.82067e+10
4.39977e+10
2.02363e+10
6.25891e+09
8.87952e+09
5.65315e+10
3.01657e+09
1.09685e+11
1.74092e+10
8.21865e+08
3.24818e+11
2.19463e+11
3.01359e+11
1.96349e+09
1.682e+11
4.11734e+10
2.65092e+10
7.61988e+10
4.81227e+09
2.93638e+10
1.08745e+09
5.71652e+09
2.62866e+09
1.16426e+10
5.19367e+09
1.98999e+10
8.25513e+10
5.7292e+10
3.10559e+09
1.3248e+10
3.5448e+10
6.18013e+08
4.14147e+10
1.10157e+09
5.23362e+09
2.53998e+08
3.06505e+10
5.89351e+10
3.49217e+10
4.37755e+10
5.81165e+10
4.64153e+09
7.94842e+10
5.36517e+09
4.18892e+10
1.44238e+10
2.10192e+10
1.76404e+10
1.56101e+10
1.23619e+10
1.00926e+10
3.31517e+09
5.34057e+10
1.75391e+08
5.33676e+08
7.17031e+08
2.40011e+09
8.75923e+10
2.86181e+11
3.68622e+08
5.41822e+08
4.49211e+10
1.42635e+10
3.817e+08
5.89632e+10
7.02739e+09
4.20486e+09
3.82528e+10
1.26649e+10
3.0689e+10
1.89796e+11
4.32074e+10
4.43053e+09
5.24627e+10
2.93288e+10
1.7082e+10
2.37166e+10
1.41278e+10
2.6137e+09
5.62512e+08
2.64569e+09
5.84341e+10
7.6437e+09
7.82923e+10
2.1231e+10
3.15796e+10
3.83535e+10
2.97747e+08
3.59691e+08
1.01467e+09
4.3463e+11
2.60203e+09
2.78938e+08
1.56478e+08
2.74714e+09
2.62377e+09
3.60646e+09
3.47173e+09
2.51522e+10
8.14588e+08
5.45102e+10
8.15902e+10
3.40256e+10
2.63897e+09
1.25665e+10
8.10987e+10
4.32966e+08
2.61317e+09
1.30283e+09
1.96842e+10
7.83314e+09
9.30035e+09
1.0294e+10
2.96559e+08
5.79853e+08
2.84227e+09
1.16127e+10
5.22757e+08
2.76552e+09
7.16862e+07
2.3883e+08
7.88512e+09
8.04416e+08
8.86697e+09
1.84416e+10
6.05343e+10
1.39839e+11
1.6253e+10
4.11098e+08
2.49332e+10
3.7966e+10
3.04558e+09
9.71218e+10
4.0316e+08
1.02847e+11
1.60901e+10
4.72399e+10
1.1886e+09
2.91089e+10
1.21541e+09
2.03838e+08
2.89554e+09
8.86223e+09
2.11933e+10
2.80509e+09
1.78895e+10
2.07962e+10
2.22961e+10
2.50709e+10
2.10232e+10
2.28114e+08
3.69525e+10
2.98451e+10
6.45053e+09
1.97528e+09
1.55889e+10
8.6072e+09
2.25707e+11
2.79116e+09
2.70532e+10
2.65712e+09
3.94835e+08
2.6742e+08
5.0326e+09
1.7201e+09
1.87081e+10
3.03159e+10
5.92417e+08
8.36736e+10
2.51968e+08
3.77103e+08
9.19494e+09
2.33801e+11
4.52498e+08
1.31123e+10
1.45287e+11
3.01106e+08
2.28056e+08
2.64253e+10
7.94237e+08
3.72152e+08
4.16292e+09
2.66174e+09
7.41931e+08
2.5729e+09
2.9305e+10
2.37991e+11
3.40044e+09
3.00307e+09
5.12311e+09
7.07496e+10
1.03221e+11
2.77423e+09
8.17673e+10
5.31831e+09
9.31184e+09
6.41955e+09
3.97221e+09
1.8363e+08
1.30242e+10
2.96921e+08
5.58233e+08
2.87137e+09
6.99536e+10
2.65554e+11
8.77853e+09
3.32552e+10
1.16081e+10
6.73263e+09
1.03749e+08
1.27005e+09
3.80663e+09
6.49096e+09
2.61815e+08
3.28207e+09
9.88946e+08
2.28381e+08
2.38908e+11
1.09744e+08
4.69295e+09
3.75838e+09
3.12227e+11
1.70425e+08
1.46207e+10
2.48253e+10
3.23223e+10
6.68864e+09
2.02473e+10
4.52656e+10
2.17516e+11
6.43624e+10
2.59864e+08
4.04807e+10
4.54855e+10
3.56764e+08
1.10566e+09
1.11576e+09
2.06356e+08
2.47066e+09
1.82302e+08
1.95019e+10
2.79984e+09
9.8081e+09
4.84693e+09
2.73826e+09
6.46201e+10
2.9162e+10
2.10042e+10
1.34254e+09
1.01167e+10
4.33629e+09
1.7347e+08
4.03702e+09
3.39127e+09
8.11431e+10
2.72743e+09
2.67757e+09
9.53151e+09
2.78401e+09
1.86642e+08
6.45364e+10
2.74052e+08
3.40407e+08
3.06075e+10
1.22135e+11
1.08931e+09
1.99461e+10
3.78344e+10
6.65795e+09
1.52661e+10
5.34487e+08
6.50119e+10
1.96759e+08
7.55396e+09
2.82306e+09
4.25081e+10
1.97765e+08
4.23269e+10
1.41484e+10
4.01385e+09
2.72986e+09
5.26524e+09
1.50024e+08
2.67408e+09
1.64743e+08
4.46006e+09
3.8889e+08
2.08481e+10
1.77535e+10
4.9406e+09
1.34702e+09
3.16922e+09
3.47405e+09
3.40096e+10
1.9622e+11
1.39226e+10
1.24317e+09
6.28278e+09
4.26855e+11
1.44774e+10
3.38001e+09
3.89915e+09
9.70693e+10
6.1225e+09
4.05032e+08
2.76783e+10
3.86407e+09
5.57765e+10
7.14567e+09
4.79157e+09
1.7952e+08
4.38421e+10
2.96486e+08
2.02669e+09
5.3059e+09
4.15108e+10
4.39028e+10
1.21384e+11
2.40336e+11
4.10083e+09
3.78131e+10
2.70243e+10
8.82956e+10
3.35166e+08
8.96447e+09
3.96375e+09
2.17065e+10
8.47623e+10
7.84497e+08
1.78065e+08
4.79516e+10
4.22382e+11
3.94854e+10
2.72732e+08
2.64851e+08
4.76029e+09
4.56492e+08
3.29644e+11
1.32871e+10
3.52482e+09
3.04538e+10
1.88812e+09
2.953e+08
1.3323e+10
2.57275e+09
5.44194e+09
6.03404e+09
1.02918e+10
4.12131e+09
1.82756e+11
2.62525e+10
2.30853e+11
3.71352e+08
1.26881e+09
6.7599e+09
1.10083e+11
2.04045e+09
3.83264e+09
7.6949e+08
2.71289e+09
1.13871e+10
4.94596e+10
5.31091e+09
1.07171e+10
5.13556e+08
1.88897e+09
4.72061e+10
2.16917e+08
3.29432e+09
3.25727e+08
3.30718e+09
1.80364e+09
5.37726e+10
4.46369e+10
6.09707e+10
1.06236e+10
4.35725e+09
7.30659e+10
3.09274e+08
4.0081e+09
9.97424e+10
1.38412e+11
4.82891e+09
2.95132e+08
5.41581e+10
1.2623e+11
1.49093e+08
2.0272e+11
2.18019e+10
1.72413e+10
5.72826e+10
3.93592e+10
3.05549e+09
1.94949e+10
1.6478e+08
1.26473e+10
1.32325e+10
2.84754e+08
2.09927e+08
2.06266e+08
7.35223e+09
1.62899e+10
1.88593e+10
3.57789e+10
4.21118e+08
4.07728e+08
7.06758e+09
1.33126e+09
2.91963e+08
4.20511e+10
1.03352e+11
3.78078e+10
4.17121e+09
6.25268e+10
3.34086e+08
2.47484e+08
9.76948e+09
1.00787e+10
4.21922e+09
2.5233e+08
1.94395e+08
2.24921e+10
3.40886e+10
3.1929e+10
7.29131e+09
1.37145e+10
7.42231e+10
1.32925e+11
4.21963e+09
2.85757e+09
2.66056e+08
1.23997e+10
1.20001e+10
3.1063e+09
1.52163e+11
1.23988e+10
8.24286e+10
1.60549e+10
1.06939e+08
1.96232e+08
2.88202e+08
7.74263e+09
3.08477e+09
2.94772e+09
9.01042e+09
2.66331e+08
8.14222e+08
3.83778e+10
6.8252e+09
1.11914e+08
9.87569e+10
1.21561e+10
3.31631e+10
1.41055e+09
6.47602e+09
1.69284e+10
3.22326e+08
4.49784e+09
2.81131e+11
3.53588e+08