/*--------------------------------*- C++ -*----------------------------------*\
  =========                 |
  \\      /  F ield         | OpenFOAM: The Open Source CFD Toolbox
   \\    /   O peration     | Website:  https://openfoam.org
    \\  /    A nd           | Version:  8
     \\/     M anipulation  |
\*---------------------------------------------------------------------------*/
FoamFile
{
    version     2.0;
    format      ascii;
    class       volScalarField;
    location    "4e-05";
    object      k;
}
// * * * * * * * * * * * * * * * * * * * * * * * * * * * * * * * * * * * * * //

dimensions      [0 2 -2 0 0 0 0];

internalField   nonuniform List<scalar> 
23640
(
4040.48
14627.6
319.145
26767.9
17131.6
21582.3
12981.6
9107.98
50373.3
35365.3
21318.1
26606.5
4521.16
15879.4
34663.3
15756.1
2412.4
46588.3
37765.1
47692.7
21520.8
278.572
22549.2
12213.8
14369.8
16693.4
73207.8
52309.8
1526.08
6841.46
3467.05
48587.8
20829.9
38669.6
40710.2
43497.2
2455.02
2374.49
1352.35
10473.8
31416.3
48361.4
16044.2
1480.09
35790.8
74116.3
3207.15
18924.7
34980.9
8543.19
48529
54427.6
40555.6
2190.52
27318.9
14546.4
30710
20806.7
7036.45
32242.1
3401.2
72949.7
17029.4
53312.8
8261.01
53266.7
14747.7
15821.1
24646.1
16178
9603.81
37930.2
26659.5
2137.14
23443.2
47871.4
2932.95
4367.62
36983.5
17493.6
75068
57823.6
7772.78
7853.53
8127.56
28840
54354.1
6154.81
16006.8
31667.8
9633.83
21886.4
42693.6
29689.7
58958.4
6736.26
52014.6
22807.5
20058.1
42565
42070.4
2157.73
9824.92
1535.85
35420.3
2227.62
12493.4
1689.55
29501.9
23461.2
3006.91
27053.5
29947.4
30857.4
46750.1
1052.25
34821.6
2745.47
3768.03
7289.66
5925.56
46405.4
26182.2
47387.3
68005.7
9942.59
48657.7
56413.9
21234.7
29094.4
56054.8
50410.5
4535.26
73123.4
2116.38
5809.57
19814.9
15225.9
21896.1
48381
21799.1
30988.4
26667.3
21465
21435.8
19764.5
18690.9
12101.8
9975.88
23684.4
8324.5
29262.2
8171.45
21206.1
58191.9
1880.13
13064.4
36215.3
15204.4
73464.4
29262.3
41905.4
44879.3
11851.4
1042.71
892.117
9960.54
81001.1
13618.8
49526.9
18311.5
46336
23126.2
28769.6
14812.2
13915.5
29482.7
57859.6
17454.7
7024.69
35652.8
6111.22
14962.5
52664
1787.56
69315.9
71223
39552
29767.7
54842.7
46922
19448.6
45523
8103.93
1675.49
9483.7
35572.7
31080.9
4499.33
70436.3
29214.6
1318.58
2654.13
47602.6
31624.7
8069.49
3843.48
21853.7
54053.5
10837
15995.4
15826
5281.66
8172.12
28453.8
23916.9
20943.2
47354.7
13979.2
1206.16
5443.96
20638.4
28933.2
27494.3
13369.1
28547.3
21018.9
46947.2
1362.92
9550.85
4254.46
1715.72
45394.7
16504.4
35499.3
57580.6
9857.09
24211.5
9928.63
69472.9
44015.9
22927.3
31865.7
44842.5
25423.8
1817.56
6110.27
21797
19637.4
10002.4
33700.2
19274.8
3233.14
14557.8
7284.2
10535.1
601.961
1780.77
16656.9
14863.8
31992.9
2973.1
45500.3
27956.9
1754.69
15820.1
69698.9
18223.1
7367.77
57658.3
33247.3
1119.02
5531.27
30550.2
53851.1
38278
1808.16
46420.9
55444.7
28421.2
9617.36
1859.5
71247.9
20953.4
24608.5
72822.3
13356.3
25524.8
16339.7
21155.8
9137.96
2006.58
23903.3
13311.9
22099.1
14338.7
27652.3
2231.3
19040.2
3287.47
81958.8
52125.1
46921.8
22588.2
20406.8
1109.6
53031
74734.7
30042.2
25210.3
1481.74
54353.1
14957.7
34110.7
29237.3
69726.8
38545.4
353.461
58017.8
20251.4
4254.51
37424.9
40327.1
51075.1
2136.78
63002.5
14706.3
14827.1
5027.98
48717.3
76103
9254.04
53510.1
64678.3
15092.1
22130.7
4953.88
32873.2
13529.7
18725.9
23876.8
28051
57708.2
46562.1
16591.9
48331
73924.3
24698.7
28126.4
45219.9
14824.1
60306.5
1731.02
2691.53
39615.3
977.798
7047.67
2755.6
16444.1
20629.5
70903.4
22574.4
48437.2
2921.93
24098.9
1163
970.473
33757.5
37605.1
7103.72
78030.5
14261.5
1457.74
28747.6
67712.6
1684.66
36533.6
1116.39
15048.3
69198.7
28337.6
14801.7
22608.3
30263.5
25962.4
2006.22
42276
865.299
10019.3
1109.21
61463.1
26952.6
6325.37
40131.3
50226.5
11940.7
46057.9
2553.46
3215.84
74487
3301.24
5900.28
33690.2
1145.97
4355.09
19985.5
23805.2
1629.74
30738.8
15692.4
30893.1
19566.4
14496
62542.7
19009.5
30623.6
73228.8
5233.33
54295.6
42374
16794.7
60398
19071.7
31634
40668.7
1067.44
46974.4
31590.7
22167.4
9166.73
2096.1
38222.2
10856.1
22374.9
64304.7
16734.9
79210.5
28683.4
65755.8
32872.5
64878.8
15425.3
29556.8
47689.8
66673.2
14668.6
74475.5
33381.1
26584
33987.1
48911.9
14561.5
15130.8
26339.1
52166.4
2201.23
14774.1
52047.3
14146
32575.7
53387.8
24280.5
31840.1
48867.8
29974.1
7386.5
41050.6
10688
47648.6
47403.3
53942.6
8063.72
32704.2
1383.29
4016.49
74193.9
15551.3
48889
53073
45905.6
15618.6
1613.75
44679.3
47425.6
23674.4
50681.1
17248.6
1624.6
3566.79
3029.73
68459.3
44109.5
4117.47
10014.5
15148.5
19912.1
42641.3
78973.8
52045.2
2982.34
6441.94
18845.6
1082.33
21171.9
7521.48
7198.13
52208.6
1373.4
1959.42
4449.4
73864.3
4100.52
41523.9
35226.7
22722.1
33248.9
30839.4
1665.7
42987.6
19674.9
31684.2
62919.2
48911.6
33798.7
16310.4
30533.3
23033.5
56546.3
28302.6
6996.17
21475.9
13817.7
59509.8
35851.7
31577.9
5332.88
40131
44525.4
1705.59
57688.1
9633.13
7628.8
15538
18806.5
2389.24
15706.3
33357.5
19664.3
11590.7
11676.9
65806.7
16767.3
30292.1
1265.67
66290.6
5727.51
18378.5
19976.5
20371.8
15637
6137.57
14103.6
22022.4
70787
45081.4
22969.6
22599.5
29403.4
64192.4
30273.1
48908
16428.2
14952.8
2081.14
2617.81
37693
30404.3
29661.9
34474.5
2948.41
38798.5
20799.7
2695.15
57299.5
33649.9
14832.4
9867.1
34272
16462.1
29401.4
19262.7
14045.3
30300.7
41496
7126.1
57113.4
45838.6
72993.6
8137.63
47344.5
19437.4
26202.4
16572.3
56611.6
6790.14
11634.2
46893.9
4112.06
31505.3
22937.3
6947.4
8486.65
25598.9
9314.06
22872.1
48151.6
43039.5
22260.1
2317.68
47268.5
32319.6
28123
39938.2
19335.5
17960
58453.1
19983.6
27793.8
6976.01
28946.3
1218.28
16612.1
2484.82
6995.19
1050.94
29764.5
6635.27
20876.5
2511.89
28193.2
42218.6
25367.2
13601
4359.19
6935.89
20944.4
28256.7
71808.5
2036.33
25145.8
41449.3
46434.2
19670.1
9195.23
46237.7
28545
50581.4
17063.9
4754.97
6935.03
44100.8
77423.3
1060.89
64855
61.7367
42.9407
5331.27
45764.5
18466.7
19527.2
46714.4
20902.1
21353
40102.9
53931
2251.47
5357.58
17737.2
3091.6
18822.6
34795.1
18482.6
18602.8
1680.47
35115.1
1694.99
25832.6
34273.7
75145.4
46558.5
1475.03
4562.94
48470.9
11688.3
63614.8
2259.49
27355.3
41801.2
12252.4
29121.3
48523.4
55008.8
40351.4
10492.1
2416.15
48931.5
9412.12
38974.5
11399.7
61946.4
29019.5
9682.21
52950.4
1342.34
221.613
38752.8
29553.2
17652.1
22241.5
25360.8
42984.4
74010.2
33009.6
1566.36
56967.9
105.145
1556.46
1807.23
33554.2
24317.5
23013.8
2632.26
17416.5
12114.2
1676.6
27650.8
11689.1
30997.2
17702.4
23911.5
9371.78
35150.8
17820.2
68257.7
1355.46
73050.7
2840.84
16929.6
1340.04
6459.6
66181.2
952.969
12434.4
5563.13
12506
48890.4
70191.8
1788
55715.5
9650.62
2509.5
7070.92
58237.2
12353.9
23369.9
18803.2
19977.5
39899
36210.6
56329.3
25188.8
37497
78191.2
30922.4
14349.1
4649.28
13238.1
16174.2
63333.1
8639.48
36592.5
47677
666.141
8995.38
22676.5
43968.7
71448.7
1250.58
53771.5
29955.6
1382.62
41239.9
24431.3
7141.21
2200.99
12686.9
5400.11
15782.5
2933.45
9990.82
34234.3
30898.3
15153.8
2902.4
34427.8
27914.2
17748.2
34153.5
16220.8
6165.9
42140.9
13382.9
17552.3
23194.3
18257.8
52474.2
12747
7553.09
34795.4
31656.8
17905.5
3447.85
5870.75
53021.4
13255.8
11526
56109.9
3021.25
32995.8
57245.7
5794.62
69841.9
2555.91
53182.5
30388.3
16521.6
25823.7
65871.1
1034.32
5018.38
52214.1
36145.9
23624.4
37696.3
1656.03
1996.97
21357.7
5921.45
9438.14
17870.2
6507.32
4375.54
39458.9
5936.39
41007.2
48910.6
16824.8
54413
37146
53070.8
69270.4
3728.51
7625.05
5768.21
72372.7
4230.99
23892.9
2515.06
40145.5
26785
67910.1
11081.2
15569.8
21401.5
48852.2
1569.1
13028.8
88207
1844.08
1080.75
35789.2
5810.52
52332.4
3670.8
68663.5
43070.8
17213.2
55302.6
25312.7
6950.73
671.961
74030.8
32247.6
50553.5
6242.18
56704.2
8753.78
9534.75
1279.68
14281.4
29716.1
4489.75
15491.1
3608.87
57566.7
624.259
57217.3
8737.1
29256.7
1848.74
76050.1
1121.64
37003.6
51212.2
20739.8
6517.97
70192.1
14929.6
29866.1
17927
31798.9
26988.7
7139.02
9810.64
1075.36
29295.3
1714.23
16564.3
41884.3
46946.2
53420.5
29347.6
240.267
33284.6
33548.7
61676.5
35945
6433.71
20396.8
18977.8
38102.1
985.783
14730.4
22140.2
18044.5
49367.9
12999.5
47932.6
1533.91
2987.65
27322.1
20853.9
2068.69
38422.3
11241
5951.2
10762.8
1012.79
15711.7
1425.12
37533
9102.65
30530.3
4851.18
31655.5
9161.44
18820
30048.6
7347.33
16735.6
25829.4
3600.28
19857.3
18418
27942.6
4534.55
31281.2
38451.1
36535.1
13848.2
41751.1
10193.9
29933.6
19603.4
17047.5
27044.4
1276.55
5079.98
12160.4
38531.9
4761.53
23801.7
15366.7
31761.6
11055.3
14370.2
30803.1
7097.43
27730.5
26882.6
38303.6
4971.31
62803.4
55809.8
27959.4
73428.2
64258.3
1667.31
8755.65
14315.9
1749.27
7722.01
2585.44
12600
10375.1
34130.8
8078.39
13486.3
41674.8
5076.59
33579.2
44950.9
1131.01
11525.5
56927.7
2850.29
14049.3
17897.1
15481.8
17922.4
42906.5
56557.8
9744.73
43356.5
2604.16
8885.9
4938.21
30273.4
10952.7
3383.05
5347.38
13622.6
5289.78
12868.9
2391.1
72256.6
55512.1
73201.9
40829.4
38332
12050.8
23660.7
37326
10646
26961.6
7467.81
55433.2
12061.2
10940
36763.6
18212
13523.1
2997.12
19662.6
18048
5252.31
1125.77
72984.4
74671.7
30989.1
10790.5
1074.19
45693.5
81339.8
59510.5
13284.9
74353.8
3363.66
11375
11988.5
4422.03
40654.9
35837.8
68900.6
5257.69
34219.8
47246.1
35570.6
6587.13
30442.5
50475.3
14160.6
5441.53
61230.4
56399.5
5519.23
4928.48
2659.85
25652.3
15136.1
27265.8
1070.4
956.489
23289.6
1944.44
22816
19215.4
3138.33
13018.8
73080.7
22960.7
16882.7
3560.25
3652.37
11945
20878.9
71950.8
66304.6
5922.7
55545.7
10059.9
4262.8
4299.89
1583.5
2300
47313.8
7659.88
39135.8
7598.92
37012.3
27735.4
43279.7
43717.9
14656.2
48783.9
1599.72
1658.42
15433.7
3830.2
1565.03
54963.1
22363.7
1192.22
19421
13646.5
73260.6
22923.6
17718.3
2049.37
70000.3
31217.1
2568.3
8183.91
7917.85
39738.2
1653.43
76533.1
7425.86
55138.7
20915.3
35010.9
23175.7
45757
2716.22
56121.6
53187.8
34644.9
16215.1
44034.6
65836.4
37879.3
39257
49524.6
30857.1
42818.8
32345.1
7349.3
27221.2
63429.7
13829.5
3575.86
35632.7
30339.8
1419.76
2349.23
27265.4
62101.4
988.131
11089.5
4964.17
31286.4
6621.98
11895.2
15322.2
12138.1
23337.3
1980.29
48906.2
9317.44
19658.2
18579.7
42992.2
19498.5
28291.2
1405.35
56672.8
41039.3
10580.4
39040.5
19752.2
943.768
29111.5
22528.3
21738.5
4410.12
19157
3505.96
63835
4981.42
1092.47
16028.9
36969.9
7229.83
57213.2
21335.6
33014.5
19043
73711.1
34245.8
52358.7
25646.1
13476.9
41892
7223.94
125.367
14983.5
25660.4
2644.28
1241.05
20230.7
29281.3
42696.3
21523.9
12341.2
38550.4
1393.06
19504.3
42318.8
14678.9
6551.04
44782.3
47559.4
48635.1
1668.06
18686.8
62094.1
3084.33
5046.92
3033.09
51962.3
20032
23706.9
30236.1
66086.5
54806.4
7697.43
19153.9
305.586
1479.57
8984.78
7104.78
1431.45
11773.2
257.676
18203.1
15355.1
67949.5
19339.2
39135.1
6630.03
34908.6
57758.1
30680.3
24047.8
25351.2
5172.16
2702.21
3767.16
12568.5
59977.9
30232.6
24310.2
45893.8
7087.15
37050.4
73559.8
37277.3
9305.02
2193.82
20879.3
22799.5
2914.63
5845.76
3390.2
3036.49
7211.6
48906
46096.3
18901.5
39559
36477.4
21505.5
15822.8
9044.5
27565.8
55288.5
29124.6
12476.1
20820.1
2639.51
42607.1
1605.01
2074.26
53501.5
1038.63
39458.6
1523.45
11909.3
60057
58012
13743.5
27166.3
17426.2
29681
13793.4
9151.74
70947.8
26992.1
16505.6
14969.9
1347.2
1196
5895.07
1388.82
2574.04
34701.9
53439.8
23896.4
39201.2
16297.6
10383.1
39424.9
2852.01
44911
41343.5
48820.7
9210.95
37320
75878.3
51320.1
41468.7
22928.2
4292.1
14302
35362.7
1447.47
48664.9
8409.26
22373.6
2941.45
1373.61
1658.54
17903.9
28931.4
80651.3
23261.5
37145.7
11030.9
227.019
1794.81
12915.7
15917
2962.26
74403.3
33209
84197.5
43247.5
73469.4
19531.9
70545
19445.7
2011.9
20742.5
40605.3
61749.3
18469.2
57539.5
72899.8
36447
74745
69240.4
1834.98
8327.45
14448
19246.8
16559.8
1156.94
19506
59206.4
26114.5
19572.2
1267.43
40426.7
1983.31
8634.31
26396.2
2095.36
21104.7
45613.6
14403.7
19808.5
45582.2
69565.3
16533.7
17399.6
8625.84
27068.8
44922.5
14948.2
58760.5
4505.21
20641.9
2971.51
23550.3
2802.08
215.252
50992.7
2270.87
29050
926.651
12567.7
5584.87
37259.9
10488.3
5085.85
1392.01
999.623
6583.8
27299.2
16651.2
4329.72
27279.9
4455.81
41874.6
6959.47
66649.7
62933.8
19321.6
35035.2
26066.4
18661.6
410.129
48840.6
4042.01
34233.3
64261.3
13060.8
17597.6
32109.7
57518
19410.8
26655.1
35998.4
54589.5
26936.4
22892.6
22393.2
58924.9
20942.5
1426.41
39726.1
33648.7
19483.2
17830.5
30838.9
14744.1
17732.6
25822.5
43043.3
18672.1
22637.3
20219.2
2273.61
3127.74
14016.6
18924
56491.3
19364.5
5488.3
17756.9
11486.5
62195
23346.6
20208.2
37455.9
15218.6
33539.4
1689.56
58442.5
15159.8
11089.2
39823.4
50548.9
12483.7
6522.35
53101.7
3514.81
63412.1
36227.8
12351.8
25187.6
19654.9
13712.6
48911.4
2657.99
10311.8
53396
41132.6
78878.9
84831.2
1732.18
1083.5
57396.6
12601.2
21023.6
71854.2
28776.2
16501.8
9092
26933.5
20182.6
1108.24
52828.9
19858.1
12575.3
3854.99
19177.5
6095.57
30180.7
5091.16
18037.4
53922.4
16258.7
3601.76
54427.9
53039.6
15461.8
48556
21892.7
15032.7
21898.8
32277.1
16550.8
10644.5
68472.7
11721.3
13554.4
17724.7
12296.3
40679.4
57839.4
27713.6
2372.09
476.96
20861.9
34293.6
23139
48908.3
17490.9
14893
42017.1
23932.5
8375.96
25872.8
39796.8
9084.4
72975.1
7589.96
14513.7
56563.5
22972.2
43442.2
43411.7
32157.1
10067.8
58082
31581.4
6480.9
32314.2
65384.7
33191.5
19316.5
66520.6
48060.6
15801.1
44382
12124.2
14637.1
74450.7
946.055
42674.6
45687
58205.8
18611.4
9656.29
3468
77673.2
4223.61
72151.6
7617.58
12947.3
17871
16912
3466.88
35248.4
19620.5
2236.06
54134.4
30298.9
23350.2
79915.7
1599.7
12200.4
33053.1
21372.2
32869.3
69171.9
17757.5
68188.9
1407.18
36674.5
5484.91
59886.2
46540.5
60146.4
11685.1
44630
16038.1
25966.6
8300.78
21827.9
2827.63
5806.92
20551.1
23740.5
19803.6
1444.63
34071.9
27179.3
6466.31
13181.4
33381.9
18733.5
1699.43
5097.63
11859.3
38416.6
54830.3
45939.6
1749.06
1380.3
3506.19
72162.9
60418.6
4210.6
15099.2
4721.5
45937.5
2212.39
3790.57
5962.3
2239.33
44445.3
40200.9
5080.99
35244.2
15516
26002.6
10370.1
21473.8
72810.9
37891.3
52521.2
12710.8
15830.1
1748.58
18740.9
6454.22
1508.9
60911.1
9242.53
4203.36
29832
1057.37
19212.4
5668.93
34168.3
28992.9
8793.23
6644.08
11410
27537
17457.3
23513.1
31167.9
37268.6
54259.2
48909.5
9436.92
1252.97
26172.1
23772
10859.7
8402.94
19874.3
19869.4
13618.6
17530.9
2777.03
1044
22095.8
17872.4
7699.5
70089.9
29674.1
40576.5
25489.3
1403.03
2054.98
8526.87
45066.7
16204.5
38409.3
21326.7
21168.4
13288.7
22669.6
50107
3792.06
47039.6
9591.37
13368.7
74615.2
59425.4
52166.3
70088.6
34667.4
13867.8
48908.7
21176.3
63699.9
35204.6
3523.5
23997.5
27351.8
24090.7
907.363
30965.2
57144.3
11381.3
56534.3
9823.45
63875.6
33499.9
39916.5
957.017
31293.7
69171.5
17790.7
8455.88
24999.1
15594
4130.71
562.795
11100.4
74459.9
16015.8
54776.5
58220.4
31732.6
15738.6
23108.4
73084.4
17327
42155.9
18462.2
39076.9
34783.1
27073.3
40468.8
30674.7
9899.13
5786.47
37914.8
28798.1
66814.7
59675.1
3835.33
15894.8
39819.6
2816.55
1382.55
15325.3
43684.2
7475.79
1439.65
55057.7
4468.94
29960.5
38735
63621.6
73848.8
19824.3
2106.37
989.097
41607.5
30304.5
6583.91
18264.6
41538.3
11523.4
17836.9
16232.8
1151.11
18696.6
11993
2355.05
20962.1
12085.5
33588.1
5696.99
1043.24
912.894
994.764
889.068
942.149
1165.33
852.056
911.845
875.328
45988.8
71217.5
5270.5
1342.04
53829
2436.08
48907.9
4640.07
1565.73
35668
1677.96
30851.4
2485.63
41813.8
2791.18
48177.8
40872.2
1364.89
9379.06
15553.6
40581.7
32549.8
43501.7
70191.4
30396.5
34389.6
1121.97
24925.9
14019.5
17808.5
48775.4
58331.4
17815.2
5553.73
6790.27
4861.45
1733.94
1428.4
5182.71
31258.9
8462.51
2173.51
15486.6
17523.8
45045.8
25578.9
36589
10556.6
6580.69
43666.5
69046.6
30937.4
1271.49
69698.2
1415.19
28573.8
18027.4
6394.13
14371.5
6169.16
3452.52
30056.4
13828.7
41592.2
31629.9
26060.4
10737.6
1623.75
14012.4
4293.75
53055.5
45755.7
33514.7
61208
6918.35
10878.5
60475.7
54269.2
6349.58
63679.8
32266.2
19109.9
34965.3
27563.6
22190.7
16451
2014.88
38832.2
14885
29006.9
48875.8
6722.81
17248.5
70146.7
1384.06
2298.45
30455.4
53884.3
70419.1
13935.6
37827.5
48905.4
8495.68
74514.5
15045.1
10686.3
35943.2
2221.02
30710.8
31432.4
38033
53155.4
21913
11409.9
9342.87
9616.28
59.9401
29366.5
45140.8
4028.49
2775.18
5274.15
15471
37519.9
62386.3
80414.6
12797.7
21215.3
3362.1
34662.8
15971.2
53134.9
37239.5
13918.2
33232.6
60395.5
57694.7
31690.7
30224.7
3050.68
25260.5
13528.2
2243.19
20083.2
77442.6
6817.13
46155
48896.2
5189.4
13240.4
16922.1
63502.8
9617.68
2729.3
25163.7
7881.01
60804.8
25662.3
36297.4
33584.1
20678.2
22529.8
39626.6
17673.1
40280.3
25734
3385.94
40097.2
87925.4
13580.4
8794.65
24949.8
51270.7
45645.3
29858.4
10346.7
47257.7
6817.19
9649.97
21426.1
26988.8
18506.9
17696.2
73494.7
71897.1
17920
38415.4
63784.7
1779.88
41223
63.2984
23473.1
2067.79
33616.4
47899.7
58749
54325
72125.9
14990.1
52053.2
10289.5
58631.1
40094.6
41687.1
22998.9
38653.1
9988.73
26443.2
12598.6
69442.2
1611.33
3060.95
4294.63
10454.1
52166.6
83497.9
2811.04
3525.83
28141.2
30020.9
1721.27
13916.6
15929.1
15233.8
45718.2
8710.61
52496
33643.6
66398.6
11371.5
47514.3
58372.6
35717.1
35236.8
39444
20946.6
48563.5
10997.1
73032.2
17385.4
49417.9
39471.9
59586.2
37578.8
2384.99
2957.39
5412.75
19567.6
11879
1590.36
1424.01
27659.8
23498.9
12238.5
19076.6
35756.7
5542.54
73129.8
29900.4
56538.6
20381.6
26950.1
61805.3
3703.93
10900.1
46318.9
32930
12217.8
7391.59
26037.9
2282.55
2861.73
12809
33428.4
3973.82
12564.6
48887.7
970.668
17353.2
5538.05
22378.5
18990.7
73032.2
76950.1
34811.7
3565.29
38438.1
28914.9
16202.1
30867.9
3510.4
63590.9
31844.5
69926.9
7196.63
34727.6
4252.9
1693.2
17334
28300.9
42647.1
12584.7
36764.6
37073.3
39590.8
20150.5
36525
1723.25
32756.5
50974
19841
44983
34885.1
22271.6
7522.45
20265.1
32258.7
11218.3
3412.24
1451.03
18241.5
7457.65
37000.2
50898
3943.84
79480.5
2220.79
3365.85
14713
43395.4
3647.72
31044.9
27444.2
1891.35
1771.45
45768.1
4671.62
2681.14
12542.4
10540.6
5093.69
24329.1
52152
42701.6
19682.9
23628.1
18472.1
33764.1
72157.1
20214
25489.7
10213.9
39672.3
21096.1
28430.2
974.439
28424.2
1671.44
2864.9
12881.2
73726.5
26183
22667.3
53260.9
6814.28
18156.2
920.481
7570.42
13782
19743.6
1065.32
12779.2
5674.46
1778.21
48167.8
1034.37
16336.5
18728.4
43457.6
1402.9
14075.9
10935
57060.3
9154.14
39358.6
58715.4
45762.7
74314.7
2051.58
65188.1
30440.5
1223.19
5766.75
6904.94
1935.28
10780.4
1574.92
40448.1
18616.7
25959.4
15786.1
11320.3
17782.8
26951.1
37821.5
44223.9
26628.1
15753.5
1480.03
14443.9
9134.33
74246
11570.2
19778.5
28611.3
18682
1526.06
73912.8
1528.29
1846.35
40301.7
6963.41
6759.78
33250.1
26154
19376.5
6582.13
2815.51
36062
1578.45
34396.5
11500.8
43396
1497.15
67745.1
31780.8
14484.7
19118.4
33807
611.517
19886.8
1412.53
15528.1
3442.34
34605.4
25104.2
16447.7
7029.88
15837.4
13300.7
30373.9
63638.8
23607.4
3436.48
19323.1
53931.9
32297.2
19523.6
15202.9
32674.2
15250.9
3538.71
44368.9
13942.3
49362.3
13575.2
22391.2
1461.13
30486.9
1659.67
9306.57
10034.1
61012.5
43749.1
6912.45
42703.8
14954.3
35276.4
10716.9
79944
2698.83
14341
14104.6
38161.8
79125.3
5453.14
48668.6
69802.8
25516.4
52520.5
2166
984.552
15414.1
2031.57
43754.7
38247.1
13224.7
51414.7
40742
2455.65
35042
26524.5
21148.7
19197.4
24775.6
13933.5
24229.2
32855.5
18186.2
2874.49
7510.76
15659.2
63318.3
10271.4
15371.6
5370.93
19391.3
32150.5
31730.2
15803.4
27331.3
2955.98
87.9948
69544.7
1715.17
96.8754
3014.23
9708.57
7151.68
48306.3
69505.4
36354.1
27130.6
9556.48
69318.1
1959.73
15072.6
68422.5
54879.1
16024.1
2310.55
73044.3
8170.93
1314.22
19055.9
22416.7
21680.7
65415.7
23928.2
16759.7
40561.4
1260.69
36938.9
10120.9
2216.08
1523.6
1874.81
13101.5
27263.2
17893.9
54352.2
3618.39
2962.85
20724.5
7819.2
1855.17
66274.8
61698.1
63366
20993.1
40365.7
2907.2
990.897
23562.9
26274.6
16409.3
1680.07
1798.48
37511.7
63862.3
60499.8
16909
25804.4
74824.1
40074.2
8811.75
18475.3
1685
17192.3
33967
23193.9
15171.8
36872
32733
34439.2
1001.94
1570.23
2672.78
22533.2
12073
17346.5
23372.5
1113.7
5582.58
32754.8
20525.6
989.686
31148.3
29606.1
43447
5457.17
14717.5
15874.8
2846
15593.2
43442.3
1539.46
20872.8
1574
42250
309.451
26606
82519.5
1122.31
23037.7
28465.6
23883.3
1365.73
5382.89
2080.17
40518.6
32683.3
16519.5
21090
23963.6
864.28
45419.2
18541.7
33210.6
14282.1
8165.38
35038.4
25633
3726.82
1295.84
37864.7
4640
9774.85
3818.02
1822.28
22577.7
30650.1
31016.3
15684.4
26063.8
30348.1
4379.3
3312.2
9784.62
24211.4
57868.3
19341.9
41886
68684
6286.63
15449.7
41303.2
43029.2
19443.9
17265.1
4262.35
8698.6
26213.9
9010.26
15964.3
26788.9
28186.4
20818.2
40098.4
15484.8
1467.14
19460.7
30109.9
2634.84
20463.1
23319.4
5703.76
68220.5
15719
21533.7
71954.7
29496
23454.5
21879.6
3420.61
73537.5
72243.9
37130.5
3387.89
25571.6
1405.76
36794
4457.76
1713.83
2917.34
2910.03
55859.3
30871.1
33965
26916.9
50669.7
22622.4
43454
57736.1
67433.1
67748.8
47341
62573.2
1555.01
2493.13
17792.7
27396.9
10652.2
309.135
64386.6
14168.4
63895.2
19625.9
26634.6
21796.2
3907.59
11208.9
1319.47
30552.2
14736.9
18171.1
43019.3
48576.1
27537.6
1339.28
25091.8
1547.93
73606.8
16663.4
1015.03
5509.8
40605
22960.4
12723.8
962.092
1299.3
51133.9
58916.7
16849.2
29556.7
18807.5
12494.7
2378.21
4967.35
20266.3
25366.3
16291.1
43852.8
38023.5
19406.8
39429.9
8354.08
66164.5
66646.4
17317.9
43630.8
14089.7
35632.3
2115.67
5917.44
48857
11308.5
26631.2
14544
16491.7
2851.21
10667.5
61751.1
15836.7
24397.4
19420.4
48368.1
4567.5
30569.4
15018.1
17888.8
60349.1
1336.3
65710
83293.2
65815.9
6006.68
32525.6
2757.02
18002.8
10701.2
25261.8
13906.4
17552
9254.26
39567.9
2315.93
44888.9
61334.3
28260.8
15781.3
33953.7
18364.7
15585.8
1930.95
46569.8
1612.52
11166.1
4714.73
20695.7
2587.47
3947.64
23288.4
1529.29
51538.9
2837.63
42366.9
2558.71
2271.26
14097.3
25372.2
50.69
15896
25144.6
11317.4
19638.2
1405.5
13058.3
5878.01
14412.1
27125.4
73193.5
25567.7
27224.1
9794.55
75124.4
4211.83
37705.8
62418.5
41540.9
1377.95
8114.87
3811.55
33387
7953.81
64019.1
2073.94
13233.2
7706.47
6260.47
30830.1
18704.5
61471.2
31746
19155
2187.08
33453.7
52592.8
30204.5
1330.26
31277
23208.1
4937.35
64532.1
40569.9
29012.4
20637.3
38079.1
87671.7
3140.66
28961.3
3313.96
45.8967
4437.13
38728.2
10950.5
9421.46
20684.1
21165.8
24526.4
42476.5
58623.8
22607.7
48904.1
1515.26
20635.1
34565.5
3289.58
18705.8
4181.61
88333.8
5139.18
8933.64
22927.8
38498
7460.18
19561.8
1432.06
49468.4
1770.11
63294.3
23998.1
15188
4966.39
25540.3
5690.06
37602.1
36554.5
187.505
20398.4
26194.9
15763.7
13714.6
14259.5
16257.8
13042.6
7362
67647.4
1371.86
20507.1
33513
43809.2
2439.01
49479.6
19370
951.243
1466.56
1482.48
29409.7
88450.3
60951.2
10724.6
44351.6
4047.78
23179.7
30192.2
5671.67
43245.5
48485.2
7227.42
992.043
27963.1
18309.7
48909
1605.77
36707.8
24579.6
26062.5
34052.7
24117
11107.7
4021.31
72908
23536
4236.69
25982.9
11884.8
5121.98
10050.1
5251.47
14333.4
27037.7
21189.5
5321.8
7152.76
35348.1
75919.8
31063
47653.1
2793.5
27473.5
9960.92
4251.84
26183.5
4034.27
25967.7
5762.98
63982.6
27738.8
15141.8
14940.8
16112.6
36788
1048.57
19185.4
69751.3
6758
14179.1
49024.7
45057.2
69271.1
5701.99
13562.4
33166.1
28265.7
16528.5
44443.7
17499.6
14790.3
39902.4
45515.7
24762.4
13838
39996.6
21973.9
39682
14534.3
41996.7
6363.59
2470.71
47308.7
58591.5
18372.3
8432
12591.7
36590.8
10270.7
23639.3
995.498
36660.5
25663
15656.7
68373.6
5599.15
25889.3
48294.5
4404.3
11039.6
33537.3
9167.03
12394.1
44626.3
44362.4
20292.4
46978.1
21516.5
58791.1
42708.6
45066.6
1220.65
38162.3
22563
53711.8
22084.2
69902.4
2860.76
3522.79
1472.23
81899.2
1925.01
59255.4
6899.92
10825.3
2263.99
11481.6
37441.8
5865.28
3108.26
2250.27
6626.16
24537.7
1406.73
36595.2
21971.4
46928.4
16225.3
1581.28
61218.1
18395.9
20738.4
27445.6
32461.3
1487.04
3125.14
32213
1021.85
11628
23305.2
41839.7
41492.7
22521.9
15887.4
1233.44
1775.36
31753.4
11273.9
1376.59
72393.4
5936.24
33328.3
1428.71
30948.9
17537.8
40574.4
9699.45
1866.43
8750.48
20649.3
40802.9
16847.6
36533.6
22998.3
7537.55
23169.2
4325.14
1272.82
23421.8
10578
12809.6
86099
41392.1
19249
44614.8
75121.5
1627.71
15007.2
26133.7
15513.7
42410.5
36272.6
36678.6
39090.6
8834.12
37098.9
14215.2
1079.45
1699.94
26284.8
6098.42
3355.41
32846.3
60111.4
34599.6
33847.6
25969
19188.1
42375.1
27237
62426.2
22031.5
64953
3736.41
1304.41
29885.5
36151.5
6314.37
19963.7
22615.8
43416.2
29041.8
13953.6
27874.7
19356.9
5455.58
18137
49121.7
11259.4
37450.3
1543.99
2059.14
18453.4
2804.55
24642.5
40897.5
27047.8
71349.8
19450.7
10189.8
24465.9
47822.2
12294.2
29781.3
55468
13602.1
17403.6
2096.4
10190.2
21840.9
22402.1
2363.16
39547.4
32876.5
48446.9
25775.3
5517.4
3093.45
48769.7
47555.7
38088.6
2992.77
7483.79
15978.3
9573.65
68121.1
25820.6
29374.7
20914.4
1409.4
29277.6
19012.7
28288.8
28838.5
18361.7
41965.3
23825.6
6295.41
16904
41454.5
61389.4
32127.4
23089.9
68168.9
20084.1
68898.9
52814
29286.3
1650.84
21173.1
2866.96
47584.8
69683.3
34641.5
25526.2
3607.77
12563
38742.6
73322.9
11324.6
62355.2
35508
34153.3
38811.7
11385.3
46536.6
3894.96
41405
80219.1
6324.83
944.985
30596
49926.9
4109.51
20899.4
8365.67
49096.5
38997.5
1124.48
8305.3
1353.85
23077.8
54649.7
68863.3
8926.16
30515.2
68306.4
29841
82654.7
16300.1
26173.7
17110
33545.2
25004.6
8358.9
5181.72
29445.7
63839.1
10468.1
35927.9
3651.64
19991.5
64065.5
1716.38
6618.17
64261.8
31281.7
31627.6
14898.8
14788.3
8437.16
32111.9
9390.57
63455
3443.92
11720.6
34674.1
10640.7
69804
46453.5
23912.5
7086
25567.3
26546.3
26676.1
37588.8
10638
28271.2
23569
48556
63929
14016.6
5639.31
64682.1
7314.51
27006.7
1305.76
7024.24
31295.2
69722.1
51052.1
16345.9
69690.2
14803.6
38821.2
1791.21
48900.2
75332.4
9575.11
22657.9
13760.5
16665.4
47007.8
48239.5
2986.44
39637.8
61234.3
5839.39
28068.1
44162.3
18198.7
42533.3
18191.6
30235.7
912.16
857.157
909.387
1067.4
891.143
929.172
904.995
841.138
870.885
19735.5
2179.66
64200.2
26764.4
2479.1
70908.4
14276
47308
19330
34710
58217.6
34675.9
21562.5
25416.8
2811.94
72075.7
2339.14
15151.9
34809.9
54807.9
45072.8
5806.12
19411.4
27886.2
46509.8
53624.5
23737
58852.9
25226.2
18287
37962.5
1149.06
3561.89
66271.8
30167.5
2621.81
38226.3
1985.31
2650.78
2486.54
2305.17
2074.48
29329.4
32566.2
62782.7
31313.6
30277.7
48107.1
30073
1334.98
14303.6
34290
62354
973.975
1414.67
60690.5
55688.7
1592.47
11928.8
65167.8
4481.7
65079.2
18486.6
20851
1385.19
37034
26095.7
3499.7
10106.2
5935.79
40672
25739.9
1344.8
2849.51
35164.9
52058
29524.4
19052.5
26517.5
22291.3
33362.6
21910.2
33478.4
4531.16
38871.5
46529.9
16141.9
33985.4
34582.8
35177.6
30242
1498.04
31053.4
19137.1
15117.6
34076.8
21701.1
26517.5
43060.5
25785.5
65220.5
25000
74876
14215.3
63732.8
24279.8
59451.4
18932.8
73178.8
1472.87
9663.21
15978.2
69370.8
5236.15
73867.3
3681.11
989.166
44272.4
50221.8
42728.6
12385.5
20509.3
1446.31
19132.1
27241.6
1601.71
82763.3
25606.4
32185.5
20257.2
74608
3173.04
15593
16899
2425.11
21657.6
29472.9
72663.3
34912.2
9527.77
64322
29848.9
21717.1
70192.6
31710.3
41026.9
1407.01
8591.84
26314.1
8034.92
44905.9
16645.8
51419.3
33160.9
33944.7
58517.2
21413.1
905.203
2751.13
1780.33
18175.7
28453.1
28624.8
71945.7
22527.1
54809.3
22997.2
24117.2
58283.8
14890.1
20520
52412.3
32071
46520.9
71634.7
21206.8
8454.75
36539
16064.6
11525.2
4170.03
26464.4
29583.2
16226
35696.5
42318.7
70936.2
25379.5
58886.4
38936.8
19771.3
43411.7
19751.4
26963.4
23387
14005.6
1451.88
75230.7
20913.3
44631.7
36342.7
4500.27
13738.3
16024.7
6063.59
34808.4
38696.8
18565.5
56548.5
72285.8
32661.2
29352.4
1409.69
21739.6
66971.8
4994.48
5654.42
13877.6
11290.9
73879.5
14929.4
2396.2
25626.1
5891.48
27480.1
73224.4
3949.97
75680.9
3267.98
24316.9
18109.7
61713.8
23457.7
31225.3
34172.8
36659
33352.9
24704.7
17762
20138.9
70793.8
24239.4
1589.88
20626.7
13224.2
69065.6
63271.6
40743.3
75031.6
7708.82
26991.3
17746.4
12147.4
8516.49
1764.55
63366.5
37667.7
2572.48
32685.9
16166.4
25413.6
79077.2
40748.2
33613.1
3049.45
2866.78
2314.63
6246.68
1594.79
1711.41
35844.4
3328.86
67316.3
73856.2
51798.5
34186.5
68220.5
27877.1
47152.6
23990.5
21959.5
49999.5
3025.77
26317.8
35680.7
64056.2
4148.12
57324.1
2789.32
42537.6
3760.4
20805.7
44170.8
5046.49
38618
39891.1
10540.8
1563.82
42120
58550.5
7048.14
50993.4
46331.8
37014.1
19091.3
22259.2
34152.5
38077.7
66282.4
18175.2
38793.1
8253.22
22448.8
42964.5
20711.8
64592.8
32791.8
12654.7
45612.5
1665.37
22898.3
17071.9
13827.6
5513.87
3395.23
23279.6
18139.2
22700.1
8536.57
3705.4
65665.3
70020.5
25182.4
66083.5
72059.2
35455.1
8135.68
45751.9
20437.4
15658.4
8918.89
53273
59098.3
47584.8
11385.2
2329.2
4100.54
28449.7
69464.6
2089.25
64185.4
1005.4
48170.4
35448.4
2916.91
3379.24
20175
4875.69
74215.7
43974
72490.7
30425.2
44294.5
19019.9
32295.1
41582.7
59854.6
11963.4
1352
32955.7
2652.27
16852.1
16712.3
28907.2
38188.7
69397
48866.2
60777.1
21798.7
1509.78
12326.5
70576.2
62254.4
7267.67
19798.4
14496.4
37294.8
40850.3
11620.4
14449.4
22851.4
71980.4
40526
35817.7
10387.6
34263.7
74144.6
4055.71
23063.7
26683
32090.1
42744.2
40168.2
59400.3
8626.95
8596.91
61393
32462.9
5782.85
73440.6
72939.4
3351.67
23575.6
30494
48857.7
11711.8
20604.6
72687.5
27367.6
70328.1
12618.5
15122.7
15431.2
26017.1
1529.84
39315.3
35725.8
9123.48
2655.48
45415.5
21504.5
8490.08
21871.6
25464
9742.54
2064.29
22280.2
4483.99
35135.2
28086.6
1552.76
46576.3
15754
27714.7
12486.8
64117.7
22760.2
3751.01
20271.8
31540.7
17647.9
66339.7
3959.11
4830.93
41375.8
39760.6
28124.6
27402
42728.9
71104
42798.7
12523.5
63256.6
14411.9
33507.2
8400.33
9723.86
9058.27
53435.2
72360.2
27442.9
27860.6
12527.9
40939.9
63667.9
73377.2
4577.48
48910.8
4522.31
39431.7
28757.6
5334.08
79532.5
68531.3
54810.3
1340.56
891.414
854.536
894.771
602.434
943.987
1162.9
893.629
962.864
1039.36
514.951
1125.59
861.044
886.508
71281.3
34517.1
61347.4
19323.8
44845.8
5684.89
5438.17
1901.78
22993.5
9034.89
48862.8
47452.1
9805.12
10261.3
28811
12470.1
28364.3
67655.3
66197.4
42140.1
64065.7
1240.11
46512.2
35136.5
18942.7
45794
42977.9
37625.1
10970.7
67972.9
4317.91
11181.4
4196.05
17010
3496.3
48522.7
28659
58975.9
73042.4
23106.2
11563.5
25107.2
18200.6
13708
44136.8
20822.1
52454.6
8371.33
67021.4
5027.08
19929
65741.1