/*--------------------------------*- C++ -*----------------------------------*\
  =========                 |
  \\      /  F ield         | OpenFOAM: The Open Source CFD Toolbox
   \\    /   O peration     | Website:  https://openfoam.org
    \\  /    A nd           | Version:  8
     \\/     M anipulation  |
\*---------------------------------------------------------------------------*/
FoamFile
{
    version     2.0;
    format      ascii;
    class       volScalarField;
    location    "4e-05";
    object      nut;
}
// * * * * * * * * * * * * * * * * * * * * * * * * * * * * * * * * * * * * * //

dimensions      [0 2 -1 0 0 0 0];

internalField   nonuniform List<scalar> 
23640
(
0.00167444
0.00404437
7.89028e-05
0.0239726
0.00489469
0.00200904
0.0045015
0.00309465
0.00746551
0.00070233
0.00885494
0.00586553
0.00306138
0.00494877
0.000976629
0.00141537
0.00143748
0.00526081
0.00965158
0.00620676
0.00621187
2.01456e-05
0.00661285
0.000819319
0.00459476
0.00499304
0.0099552
0.00794723
0.00109635
0.00316617
0.00273746
0.213963
0.00581223
0.00647241
0.00417614
0.000879138
0.00141169
0.00187216
0.000128527
0.00127507
0.00586523
0.00726239
0.00526044
0.000247627
0.0497673
0.00623793
0.00162313
0.00484413
0.00070257
0.00279936
0.992327
0.00907248
0.000768831
0.00150661
0.0253781
5.81477e-05
0.00298788
0.00447567
0.00342295
0.0217993
0.00269877
0.00845716
0.00889243
0.00971221
0.00371129
0.00951144
0.00194705
0.00479786
0.000811246
0.00522558
0.00139534
0.00646006
0.00444804
0.00132967
0.00233137
0.0599185
9.66927e-07
0.00298077
0.00960119
0.00928572
0.00616739
0.00418406
0.00351992
0.00353035
0.00367868
0.00028685
0.00879021
0.000148534
0.000998869
0.000981357
0.00395316
0.00490962
0.00210954
0.00611718
0.0107225
0.00382575
0.00985994
0.000190175
0.00433277
0.00162192
0.00241383
0.00150706
0.00034983
0.0011777
0.00375811
0.0017039
0.00254154
0.00131591
0.00655178
0.00502668
0.00250275
0.00474227
0.00651504
0.00587526
0.00051228
0.000863829
0.000897986
0.00241059
0.00161184
0.00333755
8.0969e-05
0.221637
0.00021927
0.245822
0.00816464
0.000745038
1.28336
0.00223935
0.00201708
0.00581306
0.00867215
0.00389877
0.00310029
0.0088644
0.00145918
0.000110788
0.0066993
0.00475315
0.00898659
0.009686
0.00463114
0.00295457
0.00408288
0.00905945
0.0020563
0.00514
0.00776697
0.00226337
0.00402965
0.000724248
0.00261397
0.00208034
0.0036092
0.0155601
0.00671772
0.00146472
0.00451748
0.00710698
0.00222413
0.0100057
0.000893136
0.000651446
0.000875801
0.00152169
0.000865161
0.000856947
0.00146977
0.0036788
0.00330964
0.00385896
0.00477962
0.000518446
0.00231487
0.00634813
0.00588261
0.00483057
0.00590647
0.000784137
0.00929669
0.00305126
0.0498658
1.99724e-05
0.00471277
0.0079895
0.00106968
0.00825836
0.00906058
0.00246167
0.0140608
0.00810206
0.00587406
0.00753171
0.164336
0.00361844
0.00122385
0.000769842
0.00376915
0.00177609
1.14566e-05
0.00585188
0.00953186
0.000353919
0.00182734
0.00717239
0.00848808
0.00370502
8.70567e-06
0.00622625
0.000985011
0.00220589
0.00483115
0.00479228
0.00244199
0.00373565
0.00202311
0.00556797
0.00510683
0.00628706
0.00270437
0.000396917
0.00251784
0.00819824
0.00946746
0.00590317
0.00111178
0.00639952
0.00576696
0.224555
0.000396489
0.00394387
0.00179852
0.00122633
0.00651797
0.00480894
0.00705689
0.00430208
0.00150463
0.00561071
0.00402101
0.00368604
0.00258794
0.000167984
0.00583936
0.00678715
0.0219778
0.00138364
0.00210741
0.000147869
0.0124685
0.000615156
0.025639
0.005177
0.00165892
0.00554084
0.00354168
0.00130878
9.1765e-05
0.00127278
0.00555197
0.00387968
0.0349176
0.0023677
0.00316989
0.00639964
0.000864401
0.00511425
0.00904502
0.00387638
0.00357373
0.00886825
0.00173189
0.00075604
5.84347e-05
0.0165675
0.00187047
0.00667726
0.00102247
0.214673
0.0108563
0.00632635
0.000667242
0.000832626
0.00775152
0.00935725
0.00364638
0.00779125
0.00294
0.0012556
0.00511179
0.00936092
0.00431444
0.00114535
0.00550322
0.00245826
0.00895953
0.00438798
0.00566088
0.00137219
0.00530653
0.00135786
0.00367574
0.00970172
0.256014
0.00515202
0.0066288
0.000886491
0.00420735
0.00683099
0.0308809
0.00361745
0.00112423
0.00263637
0.00603347
0.0080746
0.00920004
0.0089296
0.00252351
6.6572e-05
0.0107406
0.00267468
0.00147066
0.00658108
0.00396057
0.00775696
0.00146772
0.00246372
0.000561865
0.00422597
0.00156499
0.592074
0.00705266
0.00319094
0.00804582
0.00901043
0.0048712
0.00536658
1.29334e-05
0.0019778
0.00414826
0.00526556
0.000157062
0.00297221
0.00677852
0.191812
0.00503684
0.00523885
0.00816171
0.00574126
0.006343
0.00663776
0.00393167
0.00233074
0.0012468
0.0023874
0.00413218
0.000783656
0.00215943
0.00217608
0.00810276
0.00833673
0.00894911
0.00785845
0.00951387
0.00122826
0.00554743
0.000761241
0.000695188
0.00145143
0.00990758
0.00329463
0.00208687
0.000306776
0.00111125
0.00917362
0.00827391
0.00123157
0.0164918
0.000384182
0.00423313
0.00925374
0.00503528
0.00033317
0.00517514
0.00354687
0.00546527
0.00134974
0.00146162
0.000868852
0.000976339
0.000813746
0.00934551
0.00157522
7.54928e-06
0.000791568
0.00357725
0.00116399
0.189777
0.00171898
0.00172927
0.00736526
0.000525756
0.000517518
0.00301143
0.000828687
0.00293915
0.00562092
0.0138939
0.00114907
0.00104169
0.00228293
0.00181336
0.0123067
0.00478536
0.00708037
0.00814598
0.00588396
0.00767797
0.00332043
0.00546308
0.00679012
0.00585831
0.00906638
0.00528132
0.00180152
0.000839193
0.000849595
0.205348
0.000301828
0.00770234
0.00237026
0.00114062
0.0596148
0.00230151
0.00610723
0.00937293
0.00525286
0.00229606
0.000701257
0.00258417
0.0104438
0.00891548
0.00681164
0.000393822
0.00113385
0.00930542
0.00242992
0.00765836
0.00153224
0.00937157
0.00144486
121.456
0.00196167
0.00612759
0.0015849
0.00369834
0.00149323
0.0048636
0.00421037
0.00306241
0.000983549
0.00540562
0.00363296
0.00641151
16.3141
0.000959331
0.00339609
0.00111365
2.16841e-05
0.00223588
0.0057978
0.00855566
0.0040093
0.037704
0.0006345
0.000938406
0.00766008
0.00489036
3.90359
0.00265323
0.0400216
0.00323517
0.00082261
0.00783435
0.00115494
0.000917149
0.000836496
0.00315605
0.000496492
0.00279873
0.00166437
0.00926776
0.0238946
0.00272378
0.000556026
0.00434265
0.00560391
0.00218957
0.00649282
0.000709545
0.00200465
0.00368307
0.0101835
0.000854678
0.0054304
0.00406049
0.00350083
0.00369859
0.00108717
0.00112926
0.00296307
0.00684017
0.00142853
0.000775801
0.000401261
0.00598193
0.00692879
0.00634653
0.0011961
0.00652678
0.00906599
0.00175898
0.00897558
187.667
0.000796479
0.00507827
0.0065498
0.00529548
0.0060964
0.00518243
0.00341494
0.00570995
0.00127888
0.00323716
0.00160419
0.00019254
0.0033565
0.000782004
0.00310001
0.00131149
0.0067682
0.00151808
0.00403756
0.00433719
0.00524729
0.00147646
0.00499465
0.000828309
0.00178906
0.00445307
0.00450226
0.00300592
0.00482892
0.000137399
0.000407644
0.00259958
0.00325931
0.00541682
0.000130334
0.00705789
0.00690551
0.00101696
0.0033569
0.00539373
0.00578211
0.00955526
0.00650777
0.0025376
0.00827546
0.0010553
0.000737042
83.7454
0.00505998
0.00429361
0.00166486
0.0022922
0.00983685
0.000298434
0.000307077
0.00278328
0.00160346
0.0648385
0.00613307
0.00215112
0.00601711
0.00810566
0.000889297
0.00207801
0.00278766
0.00495576
0.00841577
0.0119973
0.00464043
0.00576882
0.00626967
0.00346677
0.010666
0.00626123
0.00862956
0.00405353
0.00211693
0.00845664
0.00936355
0.00505711
0.00280339
0.00311378
9.1552e-05
0.00294892
0.00136657
0.00670592
0.00509935
0.00317441
0.00264645
0.00584323
0.00376662
0.00190483
0.00319199
0.000343894
0.00511415
0.00140578
0.207284
0.0086527
0.00573553
0.00674568
0.0121771
0.00489227
0.0101367
0.00508336
0.00899487
0.0038662
0.00040138
0.000826672
0.00342961
0.000274551
0.00303309
0.000479099
0.0296426
0.00379317
0.00515621
0.00164616
0.000706201
0.00638265
0.000206691
0.00304729
0.00304568
2.4399e-05
0.00609667
0.00901925
0.00821802
0.00148935
0.00578359
0.00167336
0.170506
0.00153822
0.00398558
0.00624119
0.00733267
0.000709362
0.00314831
0.00312494
0.00108422
0.00777028
0.00587878
0.000841577
0.00230929
8.03145e-07
2.60513e-07
0.00162472
0.128233
0.00151483
0.00273773
0.219653
0.0047239
0.00581584
0.00156805
0.0108316
0.00132403
0.00335715
0.00525071
0.00174865
0.010276
0.0239663
0.00598824
0.00544124
0.000298545
0.0070622
0.00127609
0.0186549
0.00559985
0.00566372
0.20719
0.00106727
1.17117e-05
0.0025434
0.00416379
0.00875437
0.00120216
0.00146968
0.0063992
0.00147933
0.00645851
0.0549964
0.0108704
0.00623753
0.000552245
0.00163782
0.00736055
0.000783058
0.00236711
0.00215768
0.00487035
0.00605342
0.000730246
0.000984165
0.000546271
8.9816e-06
0.00077676
0.00209347
0.00531088
0.00585573
0.000352599
0.00368351
0.00775173
0.00187527
0.000761947
0.00715407
2.29259e-05
0.000779796
0.00130556
0.00435238
0.0202568
0.00651405
0.00193022
0.00858912
0.00179411
0.00131644
0.00628879
3.31733e-05
0.00600687
0.00912195
0.00664701
0.00187379
0.00707641
0.00935563
0.00171143
0.00106314
0.00580026
0.00215674
0.000341698
0.0010676
0.0034334
0.0091802
0.00070279
0.00435209
0.00318859
0.0047913
4.07477
0.00960498
0.00138477
0.00876474
0.00111852
0.00221776
0.00343275
0.00362961
0.00509104
0.0145981
0.000131717
0.00926365
0.00681177
0.00635468
0.00706358
0.00128205
0.00702993
0.00597655
0.00653541
0.000819081
0.00305961
0.00356201
0.00567258
0.010128
3.31511e-05
0.00267836
0.255187
0.000126824
3.57922e-05
0.0002049
0.0215702
0.00818012
0.000995521
0.00777078
0.00654925
0.000616642
0.000978754
0.00265066
0.0039182
0.000744893
0.00160278
0.000408466
0.00700737
0.00140525
0.00111513
0.0054647
0.00246022
0.00437367
0.00244614
0.00163288
0.0079301
0.0053314
0.00839814
0.00634572
0.00334553
0.000767555
0.000964397
0.00489005
0.0123486
0.00018788
0.00575564
0.00448441
2.67835e-05
0.000996798
0.00668511
0.00595114
1.56694e-06
2.71878e-05
0.00807815
8.76405e-05
0.00193274
0.00858296
0.00214205
0.00196705
0.00373095
0.00331008
0.00955319
0.0016208
0.0103858
0.00650608
0.00525681
0.00256166
0.00941406
0.0003606
0.00315528
0.0100468
0.00454896
0.00950583
0.00629025
0.00130979
0.00134621
0.0157964
0.0033534
0.000953759
0.00525346
0.00300724
0.00306319
0.00144375
0.00198801
0.0100973
91.2259
0.0034337
0.00420351
0.00573118
0.00294486
0.00501982
0.00173139
0.00371351
0.000171754
0.00894854
0.00290027
0.00950061
0.00184398
0.0752065
0.000522392
0.0025093
0.00198319
0.00694373
0.00771856
1.63817
0.00101291
0.000544484
0.00271781
0.00128702
0.000803265
0.00273171
0.0027435
0.00988218
0.00282586
0.00168123
0.0044019
0.0088692
0.00845844
0.0180328
0.00204367
0.000104372
0.00940009
0.0066553
0.000525046
0.000181119
0.0067358
2.77187e-05
0.00152193
0.000319135
0.00125163
0.00933017
9.06462e-06
0.00487394
0.00280551
0.00439552
0.000134159
0.0049306
0.0012997
0.00485085
0.00145398
0.0030174
0.000801796
0.000740738
0.00446824
0.00183921
0.00363123
0.00892112
0.00490224
0.00823157
0.00853205
0.00131734
0.00282381
0.00334916
0.000949822
0.00085135
0.000627045
0.00121419
0.00553282
0.000774084
0.0124038
0.0102611
0.00582508
6.91182e-05
0.00435446
0.0400924
0.00491511
0.000727795
0.00294889
0.00456117
0.0109364
0.00030715
0.000654172
0.000127158
0.00178751
0.00875353
0.00399998
0.0033657
0.00315421
0.00114157
0.00230221
0.00562492
0.0082549
0.0016036
0.000673674
0.00421597
0.00282658
0.00179904
0.000101315
0.00462693
0.00116291
0.00384938
0.00389433
0.00797695
0.00161893
0.0065188
0.00157022
0.00502602
0.0096294
0.00349376
0.0049698
0.00927914
0.00172168
0.00776768
0.00589377
0.000351243
0.0029931
0.00476269
0.000670405
0.00617522
0.00480115
0.000327218
0.00372341
0.00657155
0.00511537
0.00504621
0.00482364
0.000319222
0.00297233
0.0017098
0.0098509
0.00167462
0.0157879
0.00466378
0.00479934
0.00190266
0.00529387
0.0112179
0.00344512
0.00535924
0.00149257
0.00391645
0.00172271
0.00992232
0.00808902
0.000874986
0.00828619
0.00326356
0.00123204
2.83316e-05
5.32246e-05
0.00083272
0.00410533
0.00181518
0.00446818
0.000649019
0.00300958
0.00213791
0.00461201
0.0062461
3.32169e-06
0.00839422
0.106227
0.000739838
0.00121466
0.00777845
0.00104485
0.00481428
0.00684468
0.000222247
0.00503482
0.00929202
0.00683365
0.00278703
0.00690928
0.00167946
0.00404405
0.00321533
0.00110718
0.00478661
0.00183185
0.00187984
0.00384863
1.66614e-05
0.00451093
0.00161664
0.0052045
0.006603
0.00752229
0.0813884
0.00376848
0.00438692
0.00564935
0.0542686
0.000876307
0.00495429
0.00361157
0.00841001
0.00399778
1.50347e-05
0.006931
0.00261323
0.00102686
0.00122046
0.0126836
0.0052593
0.00142165
0.000387867
0.00785195
0.00753724
0.00131767
0.00209765
0.000736532
0.00109487
0.00183144
0.00168128
0.00408171
0.00948942
0.00269449
0.00433174
0.0013399
0.00294979
0.000832065
0.00346586
0.00853506
6.52595e-06
0.000880613
0.00224327
0.00974204
0.00068043
0.00515967
0.00757754
0.00465514
0.002644
0.0042601
0.0007189
0.00268468
0.00311299
0.00159322
0.0004615
0.00477471
0.00532006
0.000425059
0.000177548
0.0185357
0.00114373
0.00644768
0.00516375
0.00105538
0.0051937
0.00754145
0.00230971
0.00363632
0.00270198
0.00271205
0.0039639
0.00537516
0.00593671
0.00914384
1.12759e-05
0.00828209
0.00180611
0.00288527
0.00146814
0.00113646
0.00134395
0.315837
0.00408174
0.00670886
0.00406841
0.056908
0.00561473
0.00053423
0.000538554
0.00549429
0.141843
0.00122582
0.000628333
0.00404259
9.04775e-06
0.000935638
0.010874
0.000179998
0.00105711
0.0076586
0.00299371
0.00207209
0.0178712
0.00370393
0.00107046
0.00863105
0.00243366
0.00185942
0.00350737
0.0021155
0.00649767
0.00124786
0.00714531
2.26758e-05
0.00861071
0.00689746
0.00557672
0.00027518
0.00655019
0.0018026
0.00237606
0.00556536
0.0059771
0.00101784
0.00778606
0.00965349
0.00516216
0.000525983
0.00439168
0.000189217
0.000920638
0.0011551
0.00401277
0.00560401
0.00712184
0.00451835
0.00148644
0.00855136
0.00824716
0.00109384
0.00120452
0.00757833
0.00189939
0.000832483
0.00073057
0.00256621
0.00359192
0.00338049
0.00155743
0.00408583
0.00467719
0.00587964
0.00116102
99.4763
0.00243087
0.00876831
0.00500047
0.0055313
0.00878819
0.00637392
0.00114071
0.00839701
0.000660598
0.000872217
0.000242914
0.00815571
0.000716883
0.00645524
0.00643157
0.00517726
0.00147591
0.00515734
0.00277371
0.00999421
0.00293604
0.000394033
0.00454036
0.000524226
0.00368753
0.00739712
0.0083165
0.00560499
0.0111103
0.00599587
0.043189
0.00556825
0.000488084
0.0037876
0.00924578
0.00320784
2.20793e-05
0.00474751
0.00585825
0.00228696
0.000350565
0.005177
0.00643801
0.00372599
0.00235629
0.00231847
0.00157103
0.000542668
0.00509094
0.00438984
0.00297813
1.67097e-05
0.0016786
0.00069544
0.00612384
0.00129903
0.000200971
0.00920097
0.00252295
0.00142516
0.00223601
0.00584568
0.00957483
0.0035287
0.00342772
0.00966716
0.00442798
0.00406061
0.00535104
1.70694e-05
0.00104645
0.00430991
0.000448058
0.00020609
2.86238e-05
8.30817e-05
0.00479124
0.00568492
0.00868533
0.00869722
0.00631463
0.00375867
0.00143649
0.00841508
0.00520685
0.00938316
0.000608228
0.00329613
0.0016627
0.00287341
7.16985e-05
0.00688241
0.00578942
0.000935526
0.00108352
0.00367008
0.000273393
0.00955852
0.00900686
0.00360068
0.00185874
0.00492638
0.00576258
0.00234847
1.25631e-05
0.00263688
0.0023737
0.00306847
173.929
0.00197526
0.00268595
0.00418682
0.00871282
0.00853814
0.00589111
0.00391756
0.00039441
0.00866353
0.00940555
0.00429913
0.00527859
0.00155721
0.00506276
0.000692861
0.00148308
0.0062608
0.00096068
0.00315332
0.00101245
0.00210322
0.000729377
0.00725533
0.00474635
0.00599365
0.00326415
0.00558454
0.00372482
0.00395874
0.0046032
0.00619185
0.00803785
0.00627005
0.00110234
0.000808555
0.00354686
0.000651566
0.00162342
0.00322216
0.00472537
0.00942549
0.000876261
0.0077793
6.55976e-05
0.00647741
0.00243968
0.00411665
0.00655843
1.16731
0.00121811
0.00135167
0.00323044
0.00380801
0.000368321
0.00279284
0.00303313
0.00472574
0.00513733
0.0001101
0.143385
0.00350849
0.0152031
0.00220754
0.00112012
0.00106912
0.00591728
0.00599305
0.00678193
0.000255941
0.00913245
0.0022172
3.16715e-06
0.000928306
0.00521135
0.00344513
0.00249569
0.00762696
0.00127862
0.00238468
0.00511378
0.00802192
0.00991052
0.00863271
0.00539373
0.0016447
0.00195846
0.00117296
0.0021882
0.00510085
0.00769488
0.00974997
0.00681071
0.00626592
0.00679263
0.000900846
0.000941472
0.000940648
0.000377542
0.00126663
0.000805948
0.00893961
0.0105545
0.000750803
0.00608389
0.000994058
0.000586884
0.000866644
0.000591476
0.00591126
0.00175658
0.00556448
0.00415131
0.00484076
0.00805034
0.0075196
0.0057499
0.00813183
0.0021818
0.000863433
0.00153518
0.00536822
0.00193797
0.00770664
0.00296932
0.00523434
0.00227216
0.000254964
0.00185921
4.79576e-06
0.000497956
0.00157863
0.00794605
0.000782537
0.00271383
0.00339881
0.00185662
0.000941267
0.00126163
0.000397579
0.000426559
0.00369592
0.00881955
7.89747e-05
0.00288961
0.00887494
0.00308485
0.00624306
0.00231838
0.00493401
0.010397
6.38299e-05
0.0459573
0.00686703
0.00511851
8.59398e-05
18.9937
0.00271294
0.00513316
0.00247591
0.00402441
0.00516146
0.000975482
0.00853135
0.00605756
0.00573094
0.00039623
0.00471553
0.0156054
0.00240656
0.00591999
0.0091728
0.000899967
0.000248398
0.00270742
0.00414267
0.00983665
0.00984788
0.000725841
0.00471143
0.00160057
0.00257011
0.00128286
0.00537619
0.000876798
0.00665517
0.00158134
0.00216694
0.00466869
0.00540865
0.0108864
0.00536507
0.0026824
0.00578854
0.00272439
0.00263381
0.00562272
0.0138713
0.059021
0.00638661
0.0212556
0.000879401
0.00766761
0.0010738
0.000721971
0.00620838
0.00379936
0.00433216
0.00329106
0.0106436
7.51224e-06
0.00296006
0.00977187
0.00431002
0.0212374
0.00506288
0.00458501
117.71
0.00200141
0.00401029
0.00634329
0.00636282
0.00649145
0.00280626
0.00107863
0.000469748
0.00205202
0.00514253
0.0052043
0.00206516
0.006046
0.0082022
0.00160483
0.00573064
0.00545983
0.000704578
0.00224725
0.00951931
0.00445435
0.00205555
0.00164674
0.000207837
0.00178161
0.00320189
0.00526525
0.00225165
0.00471636
0.00194417
0.00656222
0.000467462
0.00452467
1.23979
0.0140799
0.00218901
0.000352389
0.000431735
0.000618694
0.000988868
0.00499486
0.00477129
0.00034784
0.00518475
0.00277174
0.00894286
0.00145129
0.00203503
0.00164255
6.09249e-05
0.00422754
0.0064351
0.0057318
52.345
0.00514138
0.00240559
0.00161314
0.0152225
0.00387954
0.00549987
0.00890304
0.00232797
0.00775551
0.00361502
0.000715309
0.00795621
0.0176582
0.00625143
0.00775837
0.0012135
0.00206097
0.0109542
0.000599466
0.00277971
0.00115116
0.00945482
0.0048004
0.0106784
0.00952932
0.00688564
0.00531538
0.00112737
0.00386828
0.0053847
0.0100435
0.000792948
0.00127917
0.136587
0.0103809
0.000156453
0.0014293
0.000847939
0.00228675
0.00278708
0.00803737
0.00359658
7.09572e-05
0.0101569
0.00875964
0.00270475
0.00309178
0.0125539
0.00077637
0.00812056
0.00636866
0.00536299
0.00737731
0.000914238
0.00426844
0.0062784
0.00458245
0.0020837
0.00816808
0.00852955
0.00872397
7.5636e-05
0.00316471
0.00340886
0.00698082
0.0475901
0.00589131
0.00226661
0.0912313
0.00565217
0.00619482
0.00290418
0.0164382
0.00169204
0.00351603
0.00228922
0.00620721
0.0129473
0.0010969
0.00472428
0.000518879
0.00031052
0.00399762
0.00252607
0.00767468
0.00120683
0.00320087
0.0030355
0.00610242
0.00796119
0.146969
0.000952636
0.000339473
0.00167795
0.00843247
0.00594857
0.00140609
0.000287368
0.0024768
0.120799
0.00151586
0.00104159
0.00285427
0.00107071
0.00151155
0.00143757
0.00322881
0.00704072
0.00516941
0.00590645
0.00193275
0.00532131
0.0089544
0.00669342
0.0065853
0.0044795
0.00562322
0.000618993
0.00165438
0.00365848
0.00109324
0.00908566
0.00430537
0.0028332
0.000710089
0.000825981
0.0106309
0.00180298
0.010817
0.00212676
0.00313481
0.000243528
0.00248378
0.00784926
0.00572992
0.00656329
0.00850714
0.0071491
0.00604327
57.1318
0.000989708
0.000498271
0.00620498
0.00652514
0.000652869
0.00352015
0.0131189
0.00563142
0.00316019
0.00906693
0.00114349
0.000557249
9.71678e-05
0.00472216
4.16647e-05
0.00523221
0.00956465
0.000350892
0.00929242
0.00121484
0.00112511
0.00156151
0.00936573
0.0049076
0.00515814
0.00568639
0.00771423
0.00444766
0.000183212
0.00207462
0.000842069
0.231119
0.00276638
0.00392587
0.0100308
0.00489446
0.00334265
0.00514289
0.000389846
0.00472712
10.4778
0.00498535
0.00993928
0.00659572
0.00190572
0.000895906
0.0246378
0.0196246
0.000773107
0.00522311
0.0109345
0.00206167
0.00867694
0.00113114
0.0107893
0.00146682
0.00267123
0.000742803
0.00821041
0.00875321
0.00905465
0.00343596
0.0163535
0.000212359
0.00280544
9.0601e-05
0.00407458
0.00964885
0.00746698
0.00606159
0.00907521
0.00187489
0.00495873
0.0025345
0.00977419
0.00467122
0.000801152
0.00538126
0.00487079
0.00162373
0.00880951
0.000659371
0.00272726
0.00120316
0.00306016
0.0072341
0.00457455
0.00764501
0.00595907
0.0028718
0.00514849
0.00466953
0.00203054
0.00108525
0.00323505
0.115578
4.13964e-05
0.00106684
0.00616048
0.00306861
0.00407154
0.00671552
0.0108491
0.00699072
0.00499808
0.0015175
0.00075988
0.0867933
0.0022999
0.00299325
0.00533337
0.0100679
0.00424271
0.00871648
0.00753011
0.000757564
0.00823965
0.00234177
0.0017005
0.00550368
0.00181216
0.00471257
0.00347314
0.000660187
0.000715022
0.000408886
0.000541489
0.000442309
0.000483303
0.000697303
0.000641453
0.000692075
0.00756993
0.00821134
0.00176938
0.00104166
0.010736
0.00170054
77.8768
0.00239397
0.0010919
0.00599185
0.000728085
0.00931424
0.00164676
0.00387769
0.00212721
0.00603649
0.00411609
0.00117266
0.000811131
0.00456771
0.0075289
0.00099524
0.00287101
0.00386741
0.00657758
0.00698886
0.00038607
0.000339696
0.00455915
0.00193517
0.00280506
0.00186167
0.0100559
0.00343409
0.00380966
0.00319251
0.000460015
0.00115965
0.00317217
0.00553444
0.00379106
0.00179053
0.00573707
0.000124529
0.0338576
0.00597116
0.00236428
0.00204395
0.00292363
0.0324452
0.00868222
0.00511736
0.00040988
0.00429398
0.00114237
0.00792125
0.0103865
0.00288362
0.00466723
0.00287097
0.00274409
0.03141
0.000198328
0.00164214
0.00575463
0.00290042
0.00475122
0.00115752
0.00119492
0.00217798
0.00131689
0.00543975
0.000194754
0.00497615
8.15801e-05
0.00418346
0.00592424
0.00675997
0.0029436
0.010829
0.00348244
0.00980861
0.0328567
0.00894185
0.00944921
0.00490099
0.000896938
0.00629506
0.00473428
0.000571467
0.0007139
0.00378794
0.00481011
0.00909312
0.000711516
0.00121803
0.0064515
0.0105309
0.00951432
0.00258715
0.00857336
8.44115
0.00188356
0.00566074
0.00410255
0.00220214
0.00823839
0.00114382
0.0330558
0.0022907
0.00194605
0.010547
0.0168016
0.00423537
0.00385956
0.00364931
1.39358e-07
0.00649021
0.00788195
0.00107782
0.00240858
9.84778e-06
0.0024516
0.000293402
0.00171508
0.00399742
0.00450355
0.00074174
0.00269543
0.00464667
0.0073801
0.00428939
0.000287501
0.00472805
0.000784375
0.00656707
0.00791087
0.000831871
0.00904387
0.00252306
0.00590141
0.00461333
0.00182274
0.000175244
0.00353738
8.08547e-05
0.00975579
6.50752
0.00326719
0.00374945
0.00500577
0.00572036
0.00406112
0.00203305
0.00580882
0.00361039
0.00674393
0.0032554
0.00269503
0.00501623
0.00614852
0.00514481
0.00249991
0.00931873
0.00133132
0.00342357
0.00125546
0.000445481
0.00317037
5.50788e-05
0.00354528
0.000333081
0.00574598
0.00707355
0.001053
0.00200215
0.00684503
0.00384632
0.0014661
0.0157179
0.00563065
0.00593518
0.00141628
0.00588886
0.00812029
0.0093062
0.0100254
0.0103296
0.000461348
0.0036929
3.27354e-07
0.00947503
0.00151504
0.00331824
0.00350376
0.00889504
0.00606752
0.00805611
0.00435702
0.00306801
0.00177601
0.00738579
0.0100307
0.00744096
0.00269865
0.00861399
0.000726402
0.00623542
0.00430907
0.00812647
0.0013323
0.00158008
0.00231503
0.00409809
0.00279616
0.00219257
0.00192928
0.00206494
0.00158664
0.00568677
0.000698583
0.000295617
0.00324961
0.00496712
0.00491765
0.000539185
0.00808186
0.000536734
0.00918339
0.00262678
0.00387293
0.010456
0.00672136
0.00471177
0.00991127
0.0151083
0.377338
0.00411398
0.00821495
0.00355885
0.00280732
0.00660461
0.0101188
0.00331378
0.00171937
0.00218841
0.00259868
7.92861e-05
0.00488077
0.000816067
0.00116631
0.0250646
0.0189414
0.00373779
0.00943407
0.0045749
0.00339408
0.00882985
0.000986187
0.00845527
0.0141672
0.00520174
0.00423916
0.00285177
0.00409201
0.148207
0.00495801
0.00171511
0.000528712
0.00592748
0.00158115
0.00127111
0.00519526
0.00866045
0.00271868
0.00513766
3.00058
0.000355054
0.00343712
0.00343143
0.00508313
0.00176006
0.00792993
0.00381094
0.00671057
0.00278283
0.00533321
0.00198195
0.00775742
0.000882959
0.00275092
0.00353869
0.00567222
0.00931583
0.00392161
0.00372878
0.00133933
0.00126584
0.00933926
0.00813395
0.00772365
0.00508136
0.00679992
0.00594815
0.00632708
0.00145763
0.00571115
0.00117163
0.00261333
0.00783551
0.00549256
0.0921958
0.00702601
0.00518663
2.2564e-05
0.0132421
0.00346192
0.0042627
0.00265404
0.000708604
0.00595073
0.00291001
0.00658599
0.00769082
0.00236295
0.00679477
0.00176162
0.00270378
0.00211883
0.00072491
0.00264649
0.00661523
0.000466572
0.00106922
0.00123839
0.00713425
0.00247302
0.00173844
0.00340097
0.00375669
0.00314734
0.0207047
0.00835298
0.000689557
0.0102538
0.0167315
0.00599433
0.0014502
0.00453977
0.0132557
0.000715143
0.00176544
0.0152118
0.00623941
0.0183134
0.00046538
0.00558301
0.000846809
0.00132326
0.00520077
0.00699325
0.000232342
0.00526771
0.00767717
0.000360014
0.00440666
0.000735001
0.00406127
0.00449081
0.0054049
0.000390128
0.0044782
0.00293035
0.00124609
0.000874027
0.000877433
0.00511819
0.00839933
0.000544383
0.00103934
0.00121963
0.000433493
0.00906585
0.00112756
0.0068858
0.00685454
0.000866513
0.00772253
0.00145771
0.0094478
0.00183347
0.000377442
0.00270696
0.00384583
0.00163347
0.0042335
0.00122453
0.00755025
0.0111407
0.00618369
0.0046273
0.00421193
0.000440429
0.0022417
0.00612935
0.131108
0.00630789
0.00515085
0.00113648
0.00465102
0.00221429
0.00611417
0.00441745
0.0131488
0.0077296
0.0112828
0.00112299
0.00761864
0.000767043
0.000901303
0.00477598
3.57311e-05
0.00377533
0.00498851
0.00162717
0.0050752
0.000255416
0.00133481
0.00180032
0.00113964
0.014096
0.00421675
0.00398722
0.00102006
0.00975846
0.00642488
0.00470438
0.0120505
0.0195361
0.000224336
0.0133106
0.00109002
0.00486559
0.00274235
0.0051697
0.00319487
0.00492803
0.0033019
0.00712294
0.00458307
0.00244141
0.00185756
0.00360263
0.000854943
0.00534868
0.000613272
0.00648458
0.0101495
0.00533487
0.000989852
0.00341905
0.00278256
0.00640118
0.00452758
0.00393171
0.0023211
0.00941716
0.0010703
0.00190799
0.000836146
0.00384623
0.0017078
0.00807084
0.00392363
3.54279e-05
0.000682897
0.00490798
0.00296189
0.000382499
0.00651442
0.00195584
0.0020648
0.00451709
0.00603823
0.00664769
0.00341149
1.19718
0.00914503
0.000138732
0.00628729
0.00154819
0.000329396
0.00449208
0.000813712
0.000522693
0.00990849
0.00446555
0.00781223
0.0791221
0.00183785
0.00829499
0.0246116
0.00739701
0.00549691
0.00536781
0.00423963
0.0002891
0.00370075
0.000128941
0.00200253
0.00400142
0.00326467
0.00327779
0.00465343
0.00554857
0.00337395
0.0124746
0.0081697
0.00183205
0.00423227
0.00627318
0.00153129
3.68918e-07
0.00922089
0.00122058
2.56392e-07
0.00251039
0.00256504
0.00255216
0.00390561
0.0097406
0.00195087
0.00623577
0.00188637
0.00591862
0.00111762
0.0051013
0.00422436
0.00195831
0.00478567
0.00162801
0.00886651
4.76018e-05
0.0010426
0.000161215
0.00207439
0.00245369
0.00672333
0.00130923
0.0082736
0.00759534
0.000868072
0.00970986
0.000696684
0.00155218
0.000995211
0.00153366
0.0021012
0.00410655
0.00152801
0.00743105
0.00279814
0.00193773
0.00546941
0.00413336
0.00106093
0.00940075
0.00331487
0.00955815
0.00950899
0.00234531
0.00227685
0.00035707
0.0051148
0.00616468
0.00574367
0.00100676
0.0014975
0.0056305
0.0107677
0.0103173
0.00352918
0.00436968
0.00678869
0.00108734
0.00165612
0.0107505
0.00096044
0.00214536
0.00865309
0.0155864
0.000136147
0.00986858
0.00116987
0.00664876
0.000844872
0.00113084
0.00223086
0.00590202
0.00425259
0.00918716
0.00545643
0.000419141
0.00344485
0.00251601
0.00555543
0.000787687
0.000884185
0.00648952
0.00512278
0.00190015
0.00301025
0.00133981
0.00226161
0.00486528
0.000604171
0.000603228
0.00899882
0.00121152
0.00448003
3.40299e-06
0.00558776
0.00572405
0.000620441
0.00833595
0.00835291
0.0198194
0.000511038
0.0033123
0.0014484
0.000278397
0.00567084
0.00428058
0.00490679
0.02007
0.000750878
0.00170466
0.00389277
0.00186738
0.00474227
0.00262652
0.00658691
0.00573722
0.00223336
0.00100411
0.00712675
0.00266399
0.0029311
0.00227084
0.000946891
0.00569698
0.00642857
0.000819041
0.00411284
0.0235968
0.000676338
0.00124733
0.00171801
0.00377619
0.00204838
0.006917
0.00962439
0.00117002
0.00436489
0.00310859
0.00548255
0.00696985
0.00497863
0.0123343
9.83763e-05
0.00299559
0.00197527
0.00583777
0.000628574
0.00502445
0.00621516
0.0271664
0.014919
0.00107093
0.00681247
0.00115361
0.00974208
0.000824666
0.00122031
0.00306342
0.000212848
0.00276058
0.00894673
0.00125368
0.00568436
0.00830063
0.0056147
0.0184823
0.00584486
0.00271487
0.0076824
0.00808194
0.00315806
0.000715969
0.0195471
0.00109463
0.00326317
0.00298725
0.000690103
0.00174183
0.00177563
0.0011753
0.00639245
0.00267194
0.0199727
0.00570624
0.00829456
0.00350898
0.00576499
0.00768578
0.00870325
0.000873537
0.00672911
0.000598875
0.00212661
0.00519407
0.00577075
0.00420063
2.99063e-06
0.00983054
0.00413475
0.00883446
0.00515467
0.00029892
0.00577539
0.00289601
0.00484614
0.00107884
0.00544025
0.00470163
0.00919545
0.00275985
0.006271
0.00596615
0.000130045
0.00607347
0.000967102
0.00701944
0.00557474
0.000706634
0.00340003
0.000701979
0.0047082
0.00401097
0.000598913
0.00109116
0.00827303
0.00423779
0.00496017
0.00433279
0.00453236
0.00436775
0.00167737
0.00317792
0.000159057
0.00078362
0.00571396
0.0013396
0.00520176
0.0110407
0.00120774
0.00423598
0.0032922
0.00937418
0.0093131
0.00263351
0.00460082
0.00475767
0.00122765
0.0020563
1.8145
0.00424515
0.00617406
0.00193971
0.00481953
0.00246852
0.00404988
0.00606752
0.00631454
0.0141022
0.00994051
0.739776
0.00261426
0.00328731
0.00502588
0.00437476
0.000886915
0.0011062
0.00338511
0.0055731
0.0094074
0.000132989
0.00165711
0.0014222
0.000145437
0.00410671
0.004376
0.00536215
0.00928818
0.00235301
0.0063252
0.00150027
0.00300339
0.00437453
0.00602151
0.00473155
0.00293316
0.000457349
0.0051827
0.000870848
0.164471
0.00117174
0.00129792
0.0016666
0.005408
0.00178533
0.00215043
0.00624157
0.00134059
0.00804353
0.0022984