/*--------------------------------*- C++ -*----------------------------------*\
  =========                 |
  \\      /  F ield         | OpenFOAM: The Open Source CFD Toolbox
   \\    /   O peration     | Website:  https://openfoam.org
    \\  /    A nd           | Version:  8
     \\/     M anipulation  |
\*---------------------------------------------------------------------------*/
FoamFile
{
    version     2.0;
    format      ascii;
    class       volScalarField;
    location    "4e-05";
    object      p;
}
// * * * * * * * * * * * * * * * * * * * * * * * * * * * * * * * * * * * * * //

dimensions      [1 -1 -2 0 0 0 0];

internalField   nonuniform List<scalar> 
23640
(
358.658
401.958
41.0199
308935
706.542
4771.57
449.863
1760.2
2241.56
4241.34
284910
934.871
705.118
504.776
7426.98
4046.91
160.076
190883
243963
2531.31
273996
22.2805
272199
270278
1118.61
685.491
22837.3
3655.53
83.0398
943.184
550.812
365317
274450
1355.7
2622.86
6445.96
167.766
294.531
55.744
292927
1007.24
2363.15
720.055
41.3703
310695
31514.4
315.778
551.57
4233.21
1853.49
324595
196756
5571.49
172.157
308919
4045.22
4835.73
630.972
218.779
313180
528.418
32386.8
302705
204940
256.14
203641
3525.46
998.49
175378
790.509
300135
1296.65
245807
153.887
3946.26
359392
4353.89
672.786
245935
300930
38467.3
6994.39
228.88
232.267
247.284
4574.47
195612
286863
251633
7169.43
292.639
811.637
4172.7
246615
192682
1153.56
209461
5033.89
2240.22
4298.99
4313.82
172.303
270190
125.159
1821.29
280.966
308694
125.617
995.486
2084.18
465.475
246435
1572.11
969.195
16965.3
62.0104
7083.29
427.326
310.939
1025.85
274010
314592
6067.6
316779
8688.84
284998
333696
9003.16
4568.64
843.399
6029.84
4273.82
752.036
13173.3
155.948
286704
282056
1066.17
283591
218267
2223.2
4989.94
242628
285103
241913
1455.89
290131
293473
298.929
193550
1947.62
5011.37
246.171
305248
4354.97
173.593
450.237
1409.37
3182.58
22210.4
7362.59
4535.09
6505.93
2607.12
65.9446
49.5564
305435
20235.3
308810
4245.33
549.473
15466
3935.15
940.821
305660
305868
858.819
17568.9
301379
813.78
310638
3033
1058.78
2780.29
103.396
98349.6
7772.85
3000.34
313604
3151.37
3306.13
286660
314103
242.706
119.322
290918
1851.54
5753.6
3249.69
14811.5
264885
30.2306
328.319
2310.71
253615
244.022
3253.58
272837
10925.4
305659
563.28
944.94
808.835
245.221
5097.45
1672.72
630.139
2482.84
2775.66
30.1106
832.891
284724
265502
955.377
269407
1480.68
686.782
316035
35.0668
293.418
399.534
109.739
1945.46
893.866
1397.35
7033.01
299719
1663.74
299.006
36808.7
4831.48
16149.1
1029.79
2469.2
308327
159.037
1120.47
4011.95
301327
280423
313444
687.705
330.69
305870
223.497
293199
23.8942
116.548
309487
309279
310283
469.076
4050.54
1017.12
71.6251
734.217
14945.5
2390.99
224.229
185892
2907.15
48.3941
273867
313547
9086.37
1406.51
104.855
314923
205774
912.067
285831
45.8545
94332.7
287628
3551.73
32691.8
2392.51
6780.12
404.63
286823
1550.3
129.658
1575.77
2726.22
282845
1605.38
859.616
165.469
806.063
223.208
21474.4
208298
315109
1080.64
279347
57.3532
4963.41
20798.7
309706
243753
110.526
7784.23
305759
245162
263501
13785
2793.18
35.0552
196412
4159.44
414.35
1376.42
2713.65
3485.79
156.299
6595.79
317506
1644.34
659.546
342623
95245.8
1676.3
2877.15
4869.77
1720.49
1139.07
2999.58
2711.76
1638.39
804.677
4086.39
226854
4233.11
315652
287521
183155
24984
935.894
1388.88
2027.14
309173
5850.94
117.261
421.736
2535
60.7787
1465.38
383.017
302793
285578
7482.11
277306
217158
203.518
1553.7
26.9333
41.765
3154.57
245820
913.06
12242.1
228482
111.084
264734
8254.59
116.576
318575
36.1593
1658.99
15340.5
243837
226669
1673.26
225475
2042.21
174.24
4655.93
46.3995
291337
46.0437
174634
5325.84
4317.2
5412.99
3535.47
280230
314337
316.411
321.357
21384.5
347.663
305515
5253.83
55.55
716.285
693.563
310411
91.4534
5692.27
3249.14
5774.83
301224
307422
2650.04
290346
915.864
30266.9
847.497
3844.01
1816.6
309371
177141
776.491
6004.12
4976.8
54.0965
316313
5941.66
278181
2157.42
103.249
311587
304810
270789
8333.64
288075
13158.5
6979.09
28217
317926
5128.25
303093
6759.27
4517.5
69165.5
2892.82
23849.5
3179.41
271038
3145.87
582557
3358.45
306115
5326.47
162215
161.09
380.569
4950.54
309882
4489.42
3849.18
3464.71
1506.31
407687
5886.6
1032.38
5819.85
4893.65
3495.08
3409.17
5508.19
1296.14
310347
31.5438
405.781
34362.8
634.826
400369
7416.45
333871
2619.56
76.2767
2674.94
4439.91
6756.78
9711.14
272936
37.7622
590.65
261.433
14332.3
332436
628.276
278640
1539.75
674.234
3886.64
86828.8
12975.7
369.39
1110.61
297368
54.6945
1322.61
1328.97
221.043
3364.77
96.7495
125.152
725.714
33845.7
410.298
4273.07
4081.1
268177
1100.54
1471.42
117.683
2497.2
290975
6009.99
159406
588409
7507.37
401.851
1591.5
263850
3458.42
245205
214.274
730.305
270433
8995.74
6233.34
4591.37
878.594
5411.81
3723.42
127.211
1664.24
2673.59
1303.41
1614.68
776.461
219.082
657.924
7712.02
246530
1117.14
1102.44
33736.5
883.11
4217.01
31.2181
26425
871.668
1147.06
15328.9
281573
305652
2201.67
289897
1273.87
15299.2
226033
270668
3861.86
259226
22845.3
5004.02
535199
607.465
1541.44
236.215
402.487
245278
5771.5
4571.11
2412.45
264.423
311544
2267.59
381.95
3432.07
246785
254934
2422
2357.98
650.79
259795
301627
1228.56
913.275
2500.23
221.184
199532
2264.72
12966.9
1311.78
3536.96
289767
272211
309888
8416.63
811.72
3353.47
5001.55
385.769
1191.71
262996
1082.79
1941.25
1012.14
1118.97
4845.32
4498.9
5245.54
1667.83
206.241
317667
252878
856.531
1022.54
302008
722.682
191221
592.864
266571
1148.96
6691.12
32.4352
2570.31
184.988
833.071
25.3833
309761
1153.76
598.82
308.976
7098.26
2449.22
6025.69
290308
716.335
3122
2266.56
265372
12162.1
157.246
936.256
4768.73
316322
241834
280.889
2368.39
315975
13016.7
273777
749.483
2279.41
2618.16
25251.8
62.732
7140.78
24.7527
18.2624
696.511
316087
248195
3763.7
315412
1967.2
710.09
6320.05
210084
196.491
910.536
926.343
271.138
297787
314424
2582.54
1172.26
36.855
1300.79
120.579
310015
1218.5
36041.2
315220
76.891
2927.41
156185
358.118
153560
123.397
6524.01
1254.59
283757
1484.17
372751
206952
1564.17
274047
258.937
1422.91
292077
3497.85
295840
3000.8
248581
286897
10130.3
35.2249
17.4112
6472.03
5444.23
427.49
269313
6667.38
2992.38
32731.4
2833.56
31.7277
3875.93
36.6281
67.8986
149.213
1626.9
307823
1716.93
328.343
298396
288348
184.057
1384.95
6390.94
928.779
298951
2030.01
2375.87
1242.78
299361
8614.88
112.311
112357
376.556
211861
92.3419
975.481
113018
41.3701
1371.33
837.729
983.729
396980
14454
130.192
190752
297257
406.05
214.306
148588
2169.86
309669
5105.84
290753
1785.07
229934
3888.81
6553.15
2243.19
27692.3
1576.79
256627
744.167
307479
2639.32
166435
4314.16
2530.35
318808
31.6913
4288.48
5362.73
335581
11802.1
91.9693
2694.25
1583.89
26.2477
6067.35
236919
1193.32
53.1701
282192
2619.57
300882
226.676
293042
2679.35
5488.51
1476.82
468.608
3039.1
315236
431.954
246955
294898
905.089
4552.8
266814
809.158
310633
3588.16
3597.03
396.177
214120
7750.84
986.619
2640.24
4641.07
235894
3924.83
7628.66
294029
6306.67
437.531
2706.39
150847
928.457
14299.1
291.36
209509
1529.76
1884.12
4144.26
73596.1
39.5548
779.609
210276
3662.98
280078
1578.99
196.853
137.02
305501
919.138
296139
810.173
812.893
726.509
6626.47
1014.26
238210
545701
2579.23
5187.67
2633.91
4879.04
2952.57
368.889
1161.35
308728
33411.9
691.457
279124
296.334
311548
7012.67
8011.27
296191
302571
280589
386427
82.893
314993
42424.3
169.721
42.8538
2415.55
652.136
209047
570.449
8951.61
4296.87
300941
6045.61
309865
1378.67
21.6768
12547.6
990.205
5875.6
294537
3959.2
3729.37
2627.69
27.4129
267019
262803
4413.4
696.895
572.597
153439
40.5268
5792.74
2648.6
2710.08
153.788
12286.3
45.1356
4484.7
3962.08
318157
1149.13
43190.2
308009
257540
295635
5676.02
228517
912.342
292219
55.3604
6242.13
118.282
2498.32
4469.5
358430
208204
246238
41.4981
1590.54
310577
8008.62
7022.97
881.911
2122.71
299145
4280.15
39.7583
3947.04
4970.96
296152
5149.37
295750
161058
119.226
442.191
842.807
284193
206.821
6841.48
324.864
662.645
307855
30.5483
496.292
98.3526
1897.63
286.764
254314
590.116
956.913
2677.19
613.511
315877
214.97
639.441
273160
336.726
286044
2244
5514.02
722.853
1202.64
6961.92
1297.2
300653
5164.68
262.576
1025.53
627.59
685.208
246886
28.0296
796.378
286800
243370
496.45
309669
1512.75
1254.83
297033
2286.97
315743
218.296
2173.09
6273.17
4554.83
629.951
168571
3227.11
7211.92
29218.9
8273.84
114.376
4184.82
5857.3
61.8596
1360.39
324.828
433.084
278915
5328.45
2028.7
417.86
1715.52
5153.24
248455
316137
24.7916
284135
4208.43
113.932
366.789
309479
215162
645.975
229502
3865.66
1945.57
1881.37
293.535
1521.31
815.496
6879.39
1963.54
290.837
640.059
295439
235997
406.064
263.794
22745.8
1705.82
34668.3
311756
2126.12
295.248
929.384
311414
282676
248042
1172.54
189674
1467.13
6245.02
2221.53
3421.79
266406
208.808
302023
700.791
670.267
29.9733
16906.2
89141.7
5614.32
304651
42.4081
4265.73
48781.6
37120
1633.18
11984.6
542.984
319.466
283147
673.389
5677.6
2327.57
63993.8
4464.03
7267.97
3444.26
249944
305076
992.184
3265.2
1275.37
557.651
4849.89
18660.8
721.099
779.243
217.848
7352.7
545.892
2191.07
31.9969
20.6718
307272
122.957
1616.26
277391
174.503
2358.77
40224.6
238307
2424.78
564.067
562.376
1514.4
1403.18
17807.6
107575
3887.48
5773.23
305917
703.732
424.589
91.034
196.385
315251
1338.41
1773.59
1340.79
310616
250008
4720.77
4797.02
306303
381679
113.74
34.0837
1858.74
3118.99
79.7006
207173
3856.54
76.363
287231
2392.05
10011.9
307182
311413
92.9096
54176.6
5694.48
295.027
970.218
2004.21
1425.15
126.73
80450.4
221610
5912.44
279088
1257.82
3762.48
206444
356.144
4898.59
3863.34
231339
250153
2461.02
43535.4
3301.87
4308.4
3906.17
4786.37
4171.92
3588.62
1298.51
251444
2729.87
1012.64
295.462
243754
256220
92.9671
135.5
261900
37691.6
56.3114
276242
576.887
222289
1064.5
2693.88
1903.36
954.379
580.507
127.099
536546
2154.17
290104
582.641
3383.49
290695
1237.46
112.675
5846.27
4557.11
282885
4330.23
287800
47.031
1188.78
1614.81
658.068
496.24
650.223
575.539
114693
796.147
31.7582
389.547
4846.49
1235.17
175802
283299
895.845
299647
109072
310518
3799.17
7293.25
299.251
231956
1127.77
33.9811
546.081
682.758
384.815
27.9505
1585.86
941.038
2953.08
3856.44
308951
6097.66
35.8991
1449.35
197403
2633.44
4263.7
364033
6273.74
2526.69
121.765
3449.77
7759.39
448.405
607.796
464.212
3521.49
291192
3633.67
224013
44675.1
5527.41
1313.57
791.466
20.827
77.7729
1552.69
300760
38.2054
5779.87
39.3803
1504.16
296241
69208.7
291147
2128.32
1143.86
6154.06
183307
985.317
278353
7166.15
849.642
247.84
621.878
8152.47
2840.35
903.862
7176.12
4244.61
1228.68
4392.85
12135
242284
241.719
282.865
1658.21
574.684
452.941
5819.05
525.071
437.629
1070.2
556363
3570.21
3532.4
2439.88
242367
283336
294853
1542.04
3982.31
5581.73
264511
434.214
496.227
210.49
2114.35
57.6636
137.92
3342.93
59.1946
5624.14
78.4669
293270
26090.3
3718.72
995.873
693.246
2900.87
895.583
308246
1535.94
20587.1
673.126
301555
303377
88.8252
35.6765
1020.25
31.508
309.745
2248.68
4409.58
278899
4560.36
305267
3456.32
1410.13
447.049
3100.29
1741.46
352732
300093
5720.5
12937.3
4897.67
5471.55
244992
711.542
544.931
1341.65
67.1629
361888
1087.32
308570
426.108
112.709
88.392
2584.19
964.072
3379.03
3835.81
243021
300761
22.1289
70.1144
2229.29
2514.33
470.414
29403.2
3332.78
18732.5
2225.44
16403.4
293956
22283
819.403
230.12
4614.99
5021.96
12655
638.197
4115.47
24627.1
2073.7
36885.7
2639.35
79.3547
2679.23
258747
200772
254869
49.7673
291124
190928
6717.17
2455.05
90.6346
5716.18
50.4472
293392
993.986
279.934
536.819
3159.14
957.112
287232
1947.65
13406
305127
3247.53
2701.75
6193.48
2422.44
3459.01
4096.49
703.001
773.233
404.592
4023.61
227.978
23.7535
5865.37
181.075
258438
51.167
2400.53
932.899
5034.04
2879.53
597.032
35.9378
23.1644
1160.97
267201
6167.05
667.448
314633
724.064
1743.03
1058.54
3199.17
169746
4148.76
310640
314711
673.083
37.2364
400395
629.438
1230.11
6895.29
300748
817.222
4053.79
3562.25
2478.95
754.708
6072.45
4535.17
311688
240080
742.976
183705
220328
33.1684
2728.87
220089
294015
301498
7149.41
539.287
315357
4182.46
4237.1
720.531
210890
280271
180.478
449.23
535.637
679.88
202302
603.169
596.168
2586.26
303396
11165.9
932.042
304224
310763
305327
313839
75.2938
4015.89
257608
275412
1504.12
4661.9
475.532
1053.14
211366
2797.02
11914.3
248486
457.171
308415
311514
305930
572505
329.766
330.916
1276.91
1606.46
77391.9
57213.9
101.574
27.3748
5368.96
2274.76
767.173
9449.12
924.76
303485
2539.35
772.973
1082.92
40.5965
4331.61
291701
386.855
359.091
317124
305365
5725.39
816.374
973.412
4586.4
471.236
308.296
3406.82
5651.73
289747
322475
308702
3035.77
7224.7
5790.18
320005
2846.83
3631.72
2101.23
236911
460.107
295834
233203
5855.05
5501.53
200.514
24.0547
265666
1823.17
1069.65
514423
666.311
2950.92
4316.63
309835
1418.96
807.324
235280
2107.31
28756.9
226.987
252969
4550.08
307592
1245.21
2441.39
7107.54
2318.92
197055
7755.44
955.059
3565.11
9110.29
1246.88
297234
9364.34
202222
2384.88
4082.12
265.188
2304.64
19669.1
53.7932
4274.58
315818
193227
6957.41
300547
250.916
12308.7
648.544
90665.7
227.767
3625.2
303885
303343
542.036
1960.92
301587
57.3184
3046.61
1537.71
735.589
2325.55
79.3297
428.442
1952.87
265857
2577.11
9493.42
296503
8306.87
63.5603
2104.61
940.926
2169.48
334201
5672.93
307988
316906
2643.33
785.965
1728.77
306252
265.704
977.624
4226.86
1264.58
302211
93.8776
3393.51
6906.25
308392
300396
5929.11
289342
103.451
804.736
303187
222023
2849.31
315794
90.3332
29.33
328.302
23218.5
3670.23
413.769
227836
510.057
317993
164.194
251.973
642.528
94.9931
382604
373775
872.047
236615
992.025
642.235
302505
629.353
12754.7
1696.61
1641.98
386.918
2582.72
38.3961
249614
1161.43
81.613
7626.61
1566.24
625.377
7039.63
55.3635
297323
898.539
319319
5325.96
1635.31
293763
300455
262356
2595.28
268897
255296
2274.42
3148.91
530795
294550
38.9223
801.98
267750
274599
1111.84
302502
277238
309033
299696
164.451
26.7637
4169.18
1519.85
4267.18
16302.4
263315
5364.75
274108
109.678
103.271
2278.14
224943
288735
3376.01
729.926
281372
419.329
4996.63
4111.51
336.284
315999
1928.06
297784
20372
2605.04
157176
3370.34
4161.17
993.901
463867
1661.64
108000
1121.81
305.946
7099.61
309261
307908
52.1043
1058.77
200536
2484.33
6276.23
296430
158658
179027
2736.45
43.439
253569
58791.9
298374
998.563
310197
206347
628.907
29.2136
320.847
12341.5
302132
3821.58
182160
5835
467.86
3964.92
22898.4
525.685
4366.13
1038.62
3566.04
5796.57
267966
4498.86
4915.91
295087
924.285
2391.05
239186
7481.84
3660.91
642.237
966.933
1871.42
376.847
104.993
2557.97
312866
3493.62
84.8004
3150.16
733.453
3727.11
1707.28
161343
32140
1664.39
212.929
44.3959
312120
6057.1
880.236
960.641
237302
392.865
296854
300643
33.4536
291672
308236
256.349
537.833
288814
3344.35
953.155
33.3848
41.1982
35.2233
23.4401
27.0212
38.1413
39.5336
30.4239
33.4599
1967.82
14147.9
710.027
87.1942
209815
245.229
529849
589.837
85.4934
1338.31
31.8016
259836
225.886
3009.14
377.045
2502.82
4511.77
98.2524
293029
1233.28
1703.44
3626.92
3337.03
36692.4
1654.29
1972.8
43.4061
4106.34
1015.52
257744
3945.82
10984.1
304617
938.646
1165.39
818.483
54.2375
97.7716
825.933
909.396
271.184
279.454
295652
5414.91
330976
1496.89
186913
306406
937.748
325453
8660.44
1107.38
37.8691
18429.5
105.347
259701
304029
828.088
446.724
670.949
572.085
309607
226146
4856.87
1071.56
233042
1963.53
90.1195
267414
549.987
5084.79
2421.22
4975.08
7877.24
264190
1243.78
5686.05
1546.09
833.38
160788
1698.28
295328
312702
267090
284159
970.128
66.8991
1624.51
294140
7433.14
6064.29
1142.81
528.216
35800.4
28.2783
136.012
1573.06
207624
24800.4
2736.78
238429
446782
2127.24
15918.4
289759
306006
241496
115.367
309817
5907.42
4373.16
210418
305645
394.023
307.751
251.028
17.9121
1576.83
2813.52
347.548
448.445
4253.28
275952
4234.19
6503.23
20871.4
434.169
6822.08
573.002
3433.11
301841
4645.89
4459.86
1607.92
7276.22
1763.34
4793.59
7562.57
259981
476.072
1526.49
433.173
278.318
6986.45
15034.1
264302
224414
411393
868.854
297513
677.86
4070.88
290.877
377.996
1006.71
223.376
160820
3818.46
191474
1186.19
2287.08
1839.98
3049.35
299980
4853.2
3655.8
274.351
4297.14
50368.3
4090.5
230.958
4004.04
3313.89
2110.15
7190.68
304005
1128.62
1175.12
300815
306174
819.83
2315.9
250698
16013.5
18265.2
298669
244372
127032
56.12
3079.03
20.4086
280371
186.822
4664.03
4419.1
7052.87
3832.12
84865.4
1475.16
5028.52
302332
3933.15
240481
2856.12
243514
236486
3737.6
790.902
434.18
9046.13
143.336
281.033
447.142
303.103
4455.68
17730.1
359.226
356.414
6569.22
2137.53
58.4192
7256.22
2624.29
1036.09
193419
290012
2821.25
4419.37
143693
301836
4956.43
192634
2074.31
1661
241596
305165
332074
380.698
18455.1
275641
4058.49
222588
186193
2461
284.723
396.811
823.055
4124.76
2120.74
77.9523
92.2621
309372
307371
1686.6
294105
3634.65
931.586
28580.4
7310
3505.69
304451
2252.43
4347.03
613.731
372.366
316453
1121.97
286175
300045
677.051
219.934
222.553
2206.77
250251
606.392
2209.48
388013
40.4679
274848
948.366
264912
4341.66
47332.7
15584.6
1167.01
586.342
1510.84
6251.65
302528
3844.2
589.064
8140.82
1021.83
40611
1212.37
1836.12
375.637
136.604
304780
261503
2288.16
2246.26
1481.6
1392.87
1970.09
5063.31
224488
113.117
2173.03
200455
1062.37
317432
1991.69
1560.84
5016.33
306773
1695.13
385.964
519.363
54.4984
2641.28
1481.2
1568.58
2499.63
462.993
2966.91
257.972
550.255
3106.14
6047.87
589.883
980.638
4030.23
114.749
110.13
2006.75
469.429
327.463
300435
265.905
822.716
307455
5109.09
4713.23
294579
309046
2613.09
5549.17
121173
306603
7687.71
300492
325871
2338.16
311857
23.4526
814.574
32.8698
203.197
2275.98
38121
4491.31
1572.24
2659.63
308692
1885.78
51.6902
1335.32
334.24
603.392
41.2992
1265.4
867.453
112.658
7832.37
60.1628
289172
292282
9923.67
86.1705
267413
265671
188246
298892
1339.85
2164.65
4626.81
27739.6
154.566
8406.41
6045.46
41.9151
639.387
1149.98
233.76
1145.33
136.193
1629.24
302347
788.679
499.196
400.537
218071
5263.49
1445.47
312878
1024.82
971.788
119.117
499.195
2340.98
32947.8
1180.67
304397
316077
302650
91.1333
74985.9
71.1958
61.658
1423.43
3400.98
1114.46
1173.73
5432.98
547.367
294372
201.332
3137.91
97.7238
317816
392.222
4942.44
76.6657
40745.3
1231.17
545.801
304650
314835
42.9459
303725
104.697
517.894
561.716
1272.65
3825.78
638.657
915.331
301226
417.997
5720.92
31883.2
3479.93
225.884
833.852
23637.4
1263.88
294821
2442.86
7434.94
284455
558.57
1201.86
1053.82
4189.98
284576
283440
83.0149
205268
84.3357
313.031
301046
3887.82
4974.41
3521.4
4721.81
425.884
2351.91
263545
61656.5
325.541
3094.91
1129.64
1381.01
66588.7
944.048
336153
7888.3
4772.74
1456.34
203.074
44.3243
435.775
44.6466
5208.75
244288
366.117
2563.31
312030
296.532
243599
308294
280103
1037.95
679.405
1433.48
4725.51
217869
4610.63
382.399
1305.54
2614.87
131678
1876.25
2514.79
924.603
304913
251236
5875.55
1691.89
1188.88
262.566
26.1518
43850.4
108.496
25.8266
476.381
2144.24
1283.03
4136.21
39617.5
3273.89
1338.12
2468.03
2561.63
118.077
1218.32
17134.3
4960.62
597.233
240.461
27089.3
4355.41
91.3479
5576.78
319334
246560
2127.74
217029
301021
1757.35
40.242
246396
3643.41
221.677
74.7875
210.426
285063
240472
252524
1740.93
608.148
338.009
922.529
1358.04
112.441
10767.4
10538.7
165228
288054
3147.28
439.616
41.0106
260752
973.11
2614.65
85.1641
185.115
2700.44
156542
183769
2557.36
2955.89
70966.8
4893.13
2399.57
301367
79.7784
3221.96
248803
309146
3983.31
247404
7299.59
236572
56.3933
100.089
401.218
783.958
428.67
305514
665.22
35.594
951.982
2266.44
587.216
54.0162
3768.96
1478.35
2448.42
718.658
284470
4104.33
425.667
540.1
5090.44
41.3208
286671
120.369
2746.83
34.1307
1912.4
46869.6
29.5633
277468
261970
307316
28.327
887.092
211.017
5405.04
897.183
426.709
1780.26
307229
45.7028
3708.74
2394.96
2819.35
1101.84
1696.77
234706
770.761
409.115
87.0043
2374.55
568.865
1851.9
389.101
87.7797
990.307
1621.68
7478.41
375.125
308301
7852.62
326.323
278.649
1381.19
228942
170483
293986
4759.16
129260
733.393
2310.46
220203
1402.55
302050
4015.83
711.908
2163.28
935.404
290448
403.716
1186
309188
304713
5037.24
302408
94.4685
293975
4037.3
132.464
3494.93
7169.07
643.747
120418
314831
560.995
14669.3
894.758
307809
685.713
591.352
70900
51940
200417
253.777
309505
92.5097
2454.12
723.63
35.9657
249.181
245.288
11173.9
1586.32
2268.73
310321
3304.52
278934
185105
164656
8132.75
95096.9
7332.95
1610.76
44.807
364.967
666.188
251876
1151.89
31.1992
115466
308130
8688.87
1172.4
4896.37
764.809
640.636
2028.73
99.1769
866.049
539.022
307714
3337.74
2600.16
684.122
46.2597
840.442
72.7123
1814.85
289410
35.5715
944.527
5390.66
260407
299.872
26.0427
88.0424
5101.2
7476.9
1009.38
3326.1
697.588
951.95
233.929
822.951
12267.2
7418.5
2618.37
5143.95
1760.65
297832
4160.27
1390.12
8308.57
65405.4
302692
3957.17
948.601
1708.08
145.661
1101.64
384566
386.608
1335.55
276142
413.157
464.6
365.861
156130
296733
310747
294513
318973
571.563
221134
2272.36
1887.77
11416.4
86.1192
14185.3
47610.2
10260.5
286716
6217.67
228.567
5338.38
1301.18
2939.89
2371.34
300619
2229.54
1649.23
196.288
3671.33
4685.07
665.737
289814
2260.68
214699
1244.26
64.9286
317332
110.285
288400
537.49
530.138
233.766
445.878
1202.56
116.528
2745.42
436.189
4863.69
319.64
331.811
1058.59
702.141
15.3047
290254
757.903
1000.76
282759
74.8825
477.935
1005.54
953.284
253261
10214.7
1212.2
6950.2
305245
45474.3
454.13
1488.43
7714.81
5998.9
33.5525
250.757
302.542
1242.07
1223.62
23613.4
131.446
482.555
1490.05
933.756
259513
725.479
178402
883.381
302216
89.4664
3709.16
195164
7554.79
27.2345
252512
281189
783.353
143489
4819.94
5254.94
304494
1476.73
31234.5
217.747
3318.96
191.316
12.4661
713.548
4234.69
348.496
322.024
304276
286615
4363.95
2866.09
179965
842.282
551762
95.0179
3252.14
984.616
262.118
308158
386.921
37751.6
884.694
1623.53
3168.37
4414.83
233.171
444.957
80.9332
4746.98
59.5539
11352.9
307643
302797
573.782
310323
796.24
4678.4
1385.41
38.9009
879.325
5059.68
1232.65
418.13
498.64
842.661
268550
300676
2597.75
89.6726
290808
1064.68
4922.5
142.859
3280.78
1220.62
51.2687
87.2704
72.2579
309807
33830.4
3903.55
2059.77
321354
326.58
4347.25
1052.22
616.587
5447.23
319650
1019.53
25.4748
263236
4937.21
459325
101.876
239668
234907
4611.97
1521.43
4791.37
265569
595.988
14141.4
307241
552.695
309744
302135
855.995
306589
883.933
280564
1905.05
3445.43
795.252
1243.65
3761.99
79907.3
235588
3464.98
390.272
310506
1229.16
354.032
621.598
525.009
308455
964.293
150676
260617
1785.46
2330.51
1506.75
6021.33
25.3821
294864
36679.4
950.734
294239
4963.1
5833.2
120119
978.768
1012.14
4421.53
246646
290060
1732.07
305703
377.481
2803.14
9569.59
213070
1545.73
1870.76
3894.25
5732.87
1015.14
10469
1103.54
192.596
1569.04
6075.96
292795
263.869
306269
1308.22
323.399
1158.49
38.7138
4167.08
760.47
1726.95
38818.6
942
1264.73
223796
392.609
382.405
215135
1919.82
2076.04
5535.63
4707.68
308186
314757
1282.42
153082
6625.02
2760.03
86.6544
1777.3
5295.61
5444.8
4949.77
21589.7
224.626
554.872
65.0047
58818.1
79.645
188590
1178.47
2663.09
329.132
264965
5360.77
991.627
274.842
188.168
1176.42
4389.37
26.2804
234719
737.067
4047.87
437.491
105.251
130790
1786.84
305232
243509
3650.06
86.4667
275.307
1612.87
55.4188
1931.87
278367
4520.96
1742.45
4060.9
296336
85.2042
46.6495
310246
1914.1
89.3261
19911
1036.87
1879.23
73.9945
4916.41
259067
5884.72
302645
137.371
305996
4388.61
5621.69
284954
2234.36
307429
5243.64
8084.83
314.245
82.0228
881.972
366.178
3600.24
58234.2
319748
295549
3364.13
73674.6
45.7297
257512
781.211
1621.9
3283.51
5882.16
4349.96
2827.29
250.845
1847.86
959.074
43.647
116.845
1267.17
1087.18
254.754
6419.61
12671.1
2260.55
2851.03
226843
1219.22
2633.13
1317.63
2510.92
283736
34866.5
308.8
85.8595
6056.92
1981.43
953.62
290849
7305.29
2300.17
924.954
1856.85
311977
301763
921.969
1776
1457.04
1113.56
2275.17
134.558
143.994
307540
139.937
3876.87
196097
3401.11
13111.3
297313
1819.64
253532
5468.76
456.585
180638
17217.8
2845.27
300331
157.092
305710
305816
278890
259.332
316085
4001.06
3994.98
1569.94
824.429
222.339
349290
319185
1953.2
389.704
1422.68
2380.18
304433
19255.3
5195.34
310652
235093
75.0852
5030.29
302709
208930
1477.11
305884
5934.53
1254.65
982.194
290793
2817.79
2288.25
309922
878.001
3854.17
302965
41283
3409.95
309245
150.062
288045
123.322
5486.49
10316.4
4145.36
1601.3
545.434
1604.99
1417.86
2278.67
984.615
174402
2390.57
2017.8
243397
384.828
3486.98
369.855
4451.37
16714.8
979.899
54.0186
4546.46
5119.96
353.283
3736.52
1485.77
4387.61
2800.95
42.6206
261.038
103.748
309997
5794.4
10065.8
2210.31
185346
99722.2
314969
2062.99
3871.99
1631.41
3098.39
4451.01
6972.01
1319.86
752.918
237083
128814
301
7165.65
582.804
302699
148879
73.2771
1169.19
20702.9
4490.29
313773
2909.67
1301.87
244.628
946.285
316.287
117711
550.829
3547.46
221363
2524.43
6725.99
197110
7113.54
1229.69
3801.32
3404.35
267378
320023
1609.17
226643
320802
321255
128456
265333
936.77
153339
1284.9
5106.24
32.2939
1177.8
5559.27
6823.36
1568.17
430.679
86714.8
1367.42
1857.47
179.747
203676
83913.2
1390.92
306754
519.3
285643
315148
351753
380.863
5512.88
41655.4
843.744
732.739
2443.3
303703
4128.06
293828
259921
32.2019
43.7649
24.0111
26.7907
43.3835
38.6939
26.1665
37.9602
38.9368
1732.85
119.407
139147
1316.17
209.271
127399
2485.19
3614.09
1834.8
5083.82
13206.7
198265
3402.05
4573.12
127.107
9725.98
255.895
7622.93
4130.03
5615.49
4593.3
977.225
3509.05
253269
3872.78
4854.24
7023.52
14798.8
868.164
5322.4
1889.7
44.0015
603.54
145357
310022
145.861
1556.5
255.384
423.818
385.997
337.734
256.87
210108
251516
165320
244921
6701.92
185297
1269.45
69.2225
2278.63
2201.32
2311.84
36.2557
93.857
5218.91
180661
82.5274
2043.18
67280.2
492.054
11005
776.744
2284.87
71.5657
7163.77
1696.97
559.638
287595
1012.57
5541.45
3830.37
79.4015
351.481
1324.07
206837
309533
294045
722.984
4124.45
2104.81
1041.72
1528.32
430.16
3883.99
314354
303004
1889.02
1203.11
250658
211141
68.4724
310308
239843
496.769
2828.93
305542
251876
3780.72
1245.49
8823.53
232790
14261.2
3436.77
7799.6
5082.07
4555.47
294158
23923.4
104.843
291648
1491.72
7365.08
878.887
27961.4
404.214
26.3525
2780.01
3894.47
6194.42
1612.33
304134
80.3916
266836
266664
67.9183
16742.2
254012
223935
285928
11860.7
451.763
2177.37
2489.64
118.658
533.836
3956.84
20752.6
4025.64
298499
148876
1045.45
822.464
2132.29
243363
4380.3
96.917
262.112
1636.64
6001.05
230992
2481.36
2991.31
1228.13
3562.65
122509
1227.85
30.9237
219.89
91.7069
301282
266892
1264.7
17187
273619
10355.4
277212
1767.34
176138
1438.54
290605
8133.69
5423.84
313958
104012
312469
1386.56
1985.38
2618.43
410.489
370.133
799.765
3634.08
424.754
2690.64
4127.72
8088.91
3477.34
42484
240822
308065
5047.13
303483
311553
307281
2385.87
104.934
26392
283207
1904.11
1529.78
453.26
1442.84
633.589
898.875
2016.36
231057
277776
169211
19510.2
1132.34
873.54
53.4371
305919
107248
493.513
957.364
238228
1979.86
30634.6
269421
185.258
652.375
1014.63
714.042
1851.58
616.387
14318.6
546.804
307307
3382.41
6035.57
307616
4939.81
235270
311609
312757
4353.98
304989
876.74
74081.6
277148
134.472
4040.46
269358
87091.5
106279
5451.79
63648.8
1421.28
4088.79
699.052
340.532
1516.34
37.2459
5089.92
1331.25
393.587
1039.24
4744.46
715.114
15578.8
5977.99
1894.45
397.287
235.831
283.383
752.233
37.4654
154.084
1337.07
533.416
7625.98
29931.7
3058.2
3033.99
94146
1391.48
2899.96
307778
306126
7848.19
192.287
4279.84
3772.48
158061
389.348
4875.79
468.141
5400.78
318.207
4268.42
5561.09
750.628
4256.33
5932.02
1864.34
44.9638
315417
194709
1243.9
8336.49
3847.53
4396.88
302982
3317.43
251146
6391.02
12128.5
923.847
1321.7
254.558
320386
4759.82
240221
6153
1847.16
276854
5808.03
102.663
307086
1847.92
271405
746.705
322.366
3981.1
1063.75
278560
251.946
269.529
137078
15491.8
6660.37
95646.7
10540.4
4096.84
1364.44
3373.33
1135.92
2561.93
2728.43
201365
182196
317313
302414
357.619
681.263
1395.24
45297.4
49.6078
102008
24.464
325144
3399.89
463.47
274.201
3845.22
826.305
13384.6
232985
75895.5
977.342
175765
298047
1323.09
4423.58
5695.57
2101.63
30.5534
7040.03
400.594
1847.92
284099
265720
4605.17
81717.2
372483
7290.07
634.898
56.3519
2319.43
37353.7
161541
1219.22
2154.71
1130.29
1807.96
4256.61
304136
1097.33
272587
8463.07
2307.37
2433.16
357.246
1174.36
27645.5
433.921
4255.52
271004
6609.83
1094.95
4637.12
192064
262.297
261.435
5261.89
3641.13
823.983
11095.3
12564.4
501.563
261611
1523.96
364911
392.181
287265
38685.5
7317.16
3747.5
961.692
270388
3735.51
252571
62.862
2577.15
3193.33
2630.3
362.335
5477.82
2233.99
1533.17
279193
253378
2239.32
212.388
631.662
670.175
2654.05
263754
95.6087
3657.95
268326
5264.25
3638
132241
270058
379.734
304026
4862.85
307391
7498.18
344.848
844.65
4895.22
238804
805.252
4066.16
5429.33
9505.43
3437.51
1926.15
167139
295741
1110.89
1377.24
2397.06
2860.4
171990
29030.5
253198
812.336
377.118
4824.2
121829
21361.3
493.24
515626
459.388
4291.17
310504
916.713
52773.6
123545
4839.27
27.574
43.4471
44.0071
25.4667
33.9008
41.4875
37.485
30.1866
33.0336
33.4231
34.7317
24.8372
38.7045
24.3583
32056.3
5017.27
6278.69
2477.48
3227.53
933.659
850.327
100.287
270726
1565.64
366956
316543
9927.03
258392
911.399
445.414
5160.76
33878.6
6807.57
220851
142189
95.5178
320209
3915.16
783.209
202678
3979.84
246064
374.296
127787
557.72
287536
271.833
290196
536.078
320768
762.826
6929.99
11438.8
278243
1990.23
260129
305696
524.18
1795.79
1040.63
3182.11
1518.04
143817
845.001
304203
6538.49
5679.55
227486
84.2277
295638
194156
262494
5508.72
1269.69
7950.31
4392.9
142108
309250
843.835
259784
7011.95
307922
223.755
3323.54
6184.38
653.95
6863.62
2169.52
440.894
588805
6729.12
294053
884.966
1188.52
5091.84
4099.75
3330.25
110905
305207
251754
4061.09
785.465
232574
35714.5
3692.89
256.362
259364
17917.1
141244
3744.49
291282
976.769
27544.9
2077.45
2122.51
311961
136085
252.273
186007
2087.43
1167.18
309994
120268
214282
240041
2165.42
753.942
301633
3553.2
899.465
2023.57
4269.17
301871
275.811
228750
260541
11105.3
4787.74
872.489
6392.84
203372
415897
24867
1047.2