/*--------------------------------*- C++ -*----------------------------------*\
  =========                 |
  \\      /  F ield         | OpenFOAM: The Open Source CFD Toolbox
   \\    /   O peration     | Website:  https://openfoam.org
    \\  /    A nd           | Version:  8
     \\/     M anipulation  |
\*---------------------------------------------------------------------------*/
FoamFile
{
    version     2.0;
    format      ascii;
    class       volScalarField;
    location    "4e-05";
    object      rho;
}
// * * * * * * * * * * * * * * * * * * * * * * * * * * * * * * * * * * * * * //

dimensions      [1 -3 0 0 0 0 0];

internalField   nonuniform List<scalar> 
23640
(
0.00102842
0.00141383
4.00556e-05
0.26271
0.0021229
0.00736698
0.00157041
0.00392559
0.00508912
0.00823224
0.25488
0.00278598
0.00214245
0.00165734
0.0105503
0.00630869
0.000490441
0.187576
0.226171
0.00607749
0.247778
3.10274e-05
0.246488
0.245052
0.00302468
0.00218119
0.0353468
0.00817679
0.00029883
0.00254882
0.00178183
0.2954
0.248117
0.00373346
0.00613191
0.00953018
0.000509607
0.00100982
0.000111076
0.260635
0.00294178
0.00533944
0.00216883
9.31057e-05
0.259117
0.0443365
0.000941703
0.00182014
0.00826317
0.00390691
0.262725
0.19167
0.0085329
0.000615973
0.262525
0.00487449
0.00914095
0.00197311
0.000896936
0.259948
0.00172866
0.0463414
0.265146
0.197815
0.00101657
0.196813
0.00537621
0.0027991
0.175632
0.00232567
0.264885
0.00360098
0.228082
0.000524469
0.00625515
0.290701
0.00522444
0.00206296
0.227647
0.264298
0.0517586
0.0132158
0.000926094
0.000935739
0.00098507
0.00724117
0.190891
0.256405
0.231719
0.0102642
0.00112209
0.0023618
0.00826153
0.228442
0.188559
0.00311762
0.201128
0.00659511
0.0051061
0.00828999
0.00880307
0.000616792
0.244742
0.000464054
0.0045747
0.000953897
0.265996
0.000475434
0.00293429
0.00487417
0.00156971
0.228501
0.00419347
0.00285135
0.0254222
0.000258262
0.0102055
0.00145525
0.000891067
0.00273853
0.247242
0.25598
0.00741482
0.257033
0.0162227
0.255251
0.269992
0.0156006
0.00733551
0.00255841
0.012128
0.00888434
0.0022567
0.0226654
0.00056587
0.256256
0.253209
0.0029276
0.254006
0.207639
0.00511939
0.00921539
0.225745
0.254981
0.225013
0.00370213
0.258388
0.260968
0.00114215
0.188665
0.00395586
0.00709768
0.000975835
0.264728
0.0092912
0.000617937
0.00157106
0.00386209
0.00513321
0.0347433
0.00990795
0.00755074
0.00955051
0.00435738
0.000264297
0.000207258
0.266769
0.0307368
0.265835
0.00888158
0.00181779
0.0236105
0.00635889
0.00280763
0.266204
0.266372
0.00259751
0.0265711
0.264522
0.00228709
0.25924
0.00428801
0.00291273
0.00661094
0.000346613
0.111222
0.0148207
0.00653231
0.260193
0.00729178
0.00707687
0.256187
0.256078
0.000965505
0.000423118
0.259288
0.00464305
0.00906751
0.00550138
0.0242251
0.241051
7.75721e-05
0.00108192
0.00523711
0.233138
0.000976207
0.00544946
0.246991
0.0180587
0.266747
0.00178506
0.00267398
0.00216138
0.000978863
0.0070529
0.00409842
0.00200541
0.00598369
0.00518105
8.89144e-05
0.00225306
0.25482
0.241522
0.00283777
0.24457
0.00400112
0.002192
0.256672
9.71894e-05
0.00112434
0.00114897
0.000401417
0.00490935
0.00256852
0.0038372
0.0133052
0.264632
0.00407568
0.00114241
0.0489121
0.00966805
0.0233127
0.00299179
0.00556492
0.263308
0.000554384
0.0024894
0.00547675
0.264093
0.252065
0.259727
0.00218546
0.000980358
0.266254
0.000912621
0.260766
2.85086e-05
0.000429201
0.264684
0.265
0.260543
0.0015603
0.00846854
0.00298868
0.000237781
0.00219696
0.0251161
0.00526023
0.000914827
0.183565
0.00640076
0.000186117
0.246859
0.260326
0.0158565
0.0038489
0.000349572
0.256186
0.198315
0.00274211
0.255868
0.000150206
0.107661
0.256614
0.00699275
0.0463187
0.00477395
0.0098925
0.0014485
0.256052
0.00388968
0.000436266
0.00392949
0.0049383
0.25351
0.0039922
0.00260369
0.000560564
0.00247113
0.000624693
0.0320684
0.200286
0.256022
0.00297752
0.251332
0.000223851
0.010073
0.0321121
0.261403
0.22654
0.000409016
0.0140823
0.266215
0.227236
0.240135
0.0234802
0.00621359
3.41402e-05
0.191369
0.00708549
0.00100762
0.00378747
0.0063004
0.00787391
0.000567087
0.0121592
0.261085
0.00401966
0.00140591
0.277098
0.108199
0.00386403
0.00677311
0.0102914
0.00420431
0.00309075
0.00488932
0.00610229
0.00403092
0.00247225
0.0060585
0.214335
0.00910036
0.256629
0.256971
0.181179
0.0375611
0.00278206
0.00379112
0.00509043
0.265159
0.0110045
0.000436697
0.00144365
0.00597691
0.00024439
0.00306473
0.00129228
0.26529
0.255423
0.0144244
0.249869
0.206839
0.000563227
0.00388146
0.000106179
0.00016321
0.00677982
0.227524
0.00250158
0.0198351
0.214066
0.000411846
0.241004
0.0155551
0.000435715
0.260577
6.94901e-05
0.004048
0.0256442
0.226482
0.212476
0.00409787
0.213374
0.00479378
0.000601471
0.00862342
0.000197387
0.259607
0.000173107
0.174972
0.00778644
0.00524156
0.00873045
0.00745828
0.252071
0.255951
0.00100202
0.000961667
0.0329103
0.000651758
0.266922
0.00938927
0.000210199
0.00216499
0.00219927
0.26291
0.000324082
0.0101042
0.00543117
0.00898908
0.264112
0.266066
0.00582699
0.2585
0.00272772
0.0435617
0.00245706
0.00768534
0.00469231
0.264822
0.176859
0.002402
0.0088063
0.00954496
0.000216777
0.256871
0.00726587
0.25055
0.0039866
0.000332076
0.258228
0.266415
0.245621
0.0157905
0.257346
0.021012
0.0100844
0.0394221
0.260607
0.0107448
0.265529
0.00901026
0.00839189
0.0849938
0.00532946
0.0360412
0.00681278
0.24532
0.00677018
0.470815
0.00537339
0.266224
0.00816963
0.165332
0.00057752
0.00138144
0.0100709
0.264644
0.00859206
0.00773619
0.00694147
0.00406004
0.329486
0.0100088
0.00276401
0.00964054
0.00532282
0.00730972
0.00723436
0.0113191
0.00336068
0.260365
9.0098e-05
0.000855771
0.0481604
0.00197926
0.323622
0.013601
0.270613
0.005269
0.000251334
0.00640047
0.00833297
0.0102219
0.0163166
0.247215
0.000104617
0.00187593
0.000842053
0.0241238
0.269649
0.00193908
0.250828
0.00384045
0.0021571
0.00787814
0.0999147
0.020597
0.00119332
0.00302832
0.262405
0.000217082
0.00346835
0.00347624
0.000904311
0.0070771
0.000361382
0.000422714
0.00217514
0.0471851
0.00100019
0.00755055
0.006855
0.243695
0.00317091
0.00397842
0.000413409
0.00561533
0.258779
0.00895813
0.162888
0.475542
0.0100069
0.00143201
0.00423251
0.240737
0.00716654
0.2275
0.000882682
0.00229889
0.245418
0.0159239
0.00792763
0.00591424
0.00252416
0.00862266
0.00790493
0.000478004
0.00402008
0.00432536
0.00341386
0.00398156
0.00240334
0.000729521
0.00202066
0.0101965
0.228329
0.00301904
0.00298957
0.0455008
0.00254857
0.00529078
9.00048e-05
0.0374872
0.00246158
0.00305052
0.022159
0.252851
0.266181
0.00331619
0.258606
0.0033769
0.0248012
0.213339
0.245508
0.00650256
0.237226
0.0330634
0.00907147
0.432542
0.00189619
0.00384856
0.00083531
0.00138241
0.227136
0.00749683
0.00747602
0.0055836
0.000804049
0.258018
0.00520584
0.00129339
0.00710152
0.228414
0.234012
0.00403449
0.00550239
0.00208969
0.237616
0.264232
0.00324267
0.00271991
0.00558994
0.00090481
0.193784
0.00556528
0.0223933
0.00338875
0.00733689
0.258072
0.246163
0.264379
0.0149643
0.00227214
0.00563948
0.00976141
0.000893765
0.003386
0.240148
0.00287261
0.00394331
0.00295952
0.00295992
0.00774225
0.00903443
0.00670047
0.00408655
0.000688451
0.257746
0.232661
0.00259412
0.00278618
0.264385
0.0022007
0.187527
0.00194411
0.242312
0.00308573
0.00900511
0.000126286
0.00525521
0.000370936
0.00232519
8.54568e-05
0.261408
0.00312213
0.00195939
0.000972926
0.010215
0.00549726
0.00703699
0.258866
0.00217593
0.00455134
0.0052036
0.241469
0.0211352
0.000555059
0.00278146
0.00899579
0.2571
0.224849
0.00108784
0.00576879
0.260349
0.0206785
0.247801
0.00223456
0.0033951
0.00629397
0.0370432
0.000260681
0.0129015
2.98098e-05
1.90797e-05
0.00146325
0.25722
0.229469
0.00687128
0.256339
0.00461376
0.00225162
0.0107731
0.201482
0.000640929
0.00259225
0.00262115
0.000879967
0.262623
0.259463
0.00576989
0.00309949
8.85638e-05
0.00362755
0.00044336
0.262459
0.00342063
0.0489111
0.256323
0.000278609
0.00437963
0.160517
0.00128417
0.158163
0.000387742
0.00942623
0.00334568
0.254588
0.00399946
0.301279
0.199151
0.0041524
0.24762
0.000811014
0.00355736
0.260053
0.00734611
0.262351
0.00633205
0.229901
0.256554
0.0170365
0.000110727
1.90971e-05
0.00916064
0.00831192
0.00151444
0.244521
0.00841548
0.00675587
0.0464307
0.00628082
0.000108746
0.0084989
3.25469e-05
0.00022638
0.000523732
0.00423346
0.263801
0.00412311
0.00110755
0.263209
0.257653
0.000640392
0.00379162
0.00689668
0.00276074
0.263405
0.00474101
0.0041094
0.00349227
0.2636
0.014649
0.000425555
0.123322
0.00126406
0.201252
0.000348332
0.00267204
0.124885
0.000163563
0.00353783
0.00238599
0.00273442
0.320891
0.0243065
0.000498189
0.187229
0.263288
0.00139374
0.000882674
0.154221
0.00504958
0.263197
0.00617097
0.258646
0.00463871
0.216476
0.00853504
0.0100357
0.00553624
0.0399461
0.00420714
0.235124
0.00222201
0.266325
0.00588055
0.168386
0.0067466
0.00579727
0.258472
4.07236e-05
0.00687794
0.0068469
0.272079
0.0207131
0.000356276
0.00640532
0.0042034
8.49945e-05
0.00947507
0.221486
0.00318429
0.000156918
0.253506
0.00369398
0.264584
0.000640714
0.260642
0.00594555
0.0099343
0.00373199
0.00157996
0.00660836
0.260328
0.00152695
0.228501
0.261492
0.00251445
0.00777448
0.242552
0.00238063
0.262935
0.0061812
0.00740481
0.00142303
0.201415
0.0107751
0.00291321
0.00586099
0.00501536
0.218078
0.00865177
0.00849921
0.261332
0.0125776
0.00142462
0.00606796
0.156201
0.00259876
0.024245
0.000916062
0.201139
0.00409454
0.00444454
0.0068784
0.0892255
5.83676e-05
0.0022694
0.201751
0.00758152
0.251575
0.00388095
0.000677605
0.000497833
0.264742
0.00257573
0.262584
0.00237167
0.00231519
0.00219607
0.0107752
0.00222519
0.221953
0.441029
0.00525594
0.0104571
0.00584871
0.00978425
0.00633366
0.00101661
0.00307094
0.266263
0.047686
0.00210385
0.250904
0.00100209
0.257312
0.00969696
0.0141972
0.262568
0.265359
0.252118
0.312311
0.000293427
0.261039
0.0549433
0.000571325
0.000166698
0.00561515
0.0019004
0.200849
0.00182849
0.0151121
0.00828639
0.26442
0.0121053
0.262693
0.00284279
3.44207e-05
0.0217258
0.00292525
0.00774432
0.261514
0.00862791
0.00470373
0.00434524
6.48012e-05
0.242881
0.239619
0.00761824
0.00211213
0.00183554
0.157684
4.58947e-05
0.0114512
0.00399278
0.00597384
0.000563683
0.0201697
0.000168286
0.00871218
0.00849934
0.261181
0.00310854
0.0585505
0.265808
0.236031
0.26164
0.00759608
0.21544
0.00251749
0.260147
0.000218765
0.00941828
0.000414193
0.00563242
0.00778114
0.290058
0.200199
0.228251
3.70884e-05
0.00415566
0.260095
0.0147845
0.00986217
0.0024574
0.0048732
0.263233
0.00649287
0.000154195
0.00691424
0.00742086
0.261967
0.00983878
0.26225
0.164086
0.000436754
0.00147112
0.00255922
0.254432
0.000723668
0.0090501
0.00121281
0.00192553
0.266485
5.64696e-05
0.00168945
0.000388625
0.00461158
0.00110503
0.233731
0.00139961
0.00284655
0.00413332
0.00199733
0.26038
0.000885403
0.00206046
0.246874
0.000931288
0.255743
0.00512687
0.00797299
0.00216691
0.00336152
0.00936202
0.00333394
0.264815
0.00645777
0.00102311
0.00300362
0.0020351
0.00217911
0.228705
6.7741e-05
0.00230486
0.256606
0.225771
0.00121301
0.2633
0.00382255
0.00347799
0.26318
0.00522281
0.260204
0.000895045
0.00503456
0.0095522
0.00856894
0.00149747
0.169917
0.00741714
0.00964981
0.0425795
0.0148898
0.000430973
0.00574404
0.00661148
0.000206356
0.00353614
0.00106934
0.00152509
0.251093
0.00941858
0.00371333
0.001483
0.00447822
0.00549581
0.229568
0.257549
9.66558e-05
0.254749
0.0091344
0.000320596
0.00133977
0.264335
0.203316
0.00208059
0.215785
0.00845009
0.00406146
0.0048192
0.000923898
0.00384166
0.00239491
0.00993542
0.00469091
0.000909789
0.00154529
0.262032
0.217477
0.00145017
0.000833918
0.0338909
0.00404523
0.0483985
0.25708
0.00498048
0.00111275
0.00276503
0.258543
0.253646
0.229564
0.00309785
0.186511
0.00370975
0.00660633
0.00550743
0.00610067
0.242377
0.000559964
0.264332
0.0022185
0.001338
8.73141e-05
0.0273705
0.102802
0.00754525
0.266446
0.000155672
0.00802212
0.0613956
0.0493078
0.00402606
0.0210259
0.00176368
0.00119648
0.254155
0.00203766
0.00900163
0.00553602
0.0795285
0.00492095
0.0103407
0.00722448
0.230482
0.266702
0.00290458
0.00745257
0.00335438
0.00168741
0.0095038
0.0277217
0.00208728
0.00227336
0.000727432
0.0092199
0.00182205
0.00506609
7.83024e-05
4.17304e-05
0.264093
0.000409468
0.00393425
0.2502
0.000464287
0.00540618
0.0544646
0.222316
0.0051767
0.00181049
0.00180476
0.00378651
0.00360916
0.0280401
0.12003
0.00550707
0.011726
0.266839
0.00212663
0.00100405
0.000329482
0.000638338
0.255916
0.00349559
0.00462366
0.00350206
0.258549
0.230986
0.00732843
0.00741651
0.266268
0.308473
0.000436767
0.000105861
0.00441083
0.00483559
0.00027603
0.199335
0.00586754
0.000295508
0.256549
0.0047853
0.0167256
0.264185
0.262358
0.000301598
0.0697345
0.0100329
0.000998634
0.00263359
0.0037684
0.00386815
0.000453956
0.0945361
0.206457
0.0119737
0.251205
0.00350211
0.00672444
0.199475
0.00114001
0.00959094
0.00841462
0.217443
0.230652
0.0059853
0.0591831
0.00705242
0.00706696
0.00842756
0.00613283
0.00765347
0.00736315
0.00341361
0.231967
0.00599852
0.00281366
0.000829283
0.226129
0.23508
0.000340331
0.000421162
0.239186
0.0495696
0.000235515
0.249184
0.00170126
0.211098
0.0028707
0.00428445
0.00447724
0.00267168
0.0019268
0.000428362
0.433629
0.00410547
0.258271
0.00182837
0.00719464
0.25863
0.00348158
0.000422441
0.0118145
0.00791636
0.253764
0.00592802
0.256875
0.000191091
0.00337678
0.00393208
0.00206859
0.00117568
0.00208961
0.00183945
0.126474
0.00230604
7.08438e-05
0.0013381
0.00835043
0.00325669
0.175705
0.253914
0.00264556
0.263525
0.120555
0.259769
0.00830737
0.00972882
0.00112438
0.217605
0.0029758
3.01679e-05
0.00182331
0.00217206
0.00133111
7.18112e-05
0.0039417
0.00280161
0.00668778
0.00625213
0.26581
0.0079862
0.000111667
0.00369623
0.192679
0.00504374
0.00563114
0.294519
0.00833507
0.00600592
0.000466534
0.00629814
0.0148368
0.00152166
0.00123275
0.00152296
0.00730414
0.258823
0.00702889
0.212237
0.0601028
0.0110297
0.00343186
0.00243865
3.11845e-05
0.000280032
0.00389715
0.265237
7.65775e-05
0.00632813
3.56266e-05
0.00380581
0.262337
0.0846894
0.258974
0.00489723
0.0031026
0.00785649
0.181653
0.00288767
0.250411
0.00920899
0.00246512
0.000776532
0.00195404
0.00865869
0.00620263
0.00270133
0.0100571
0.00796138
0.00324414
0.00623771
0.0214222
0.22507
0.000964108
0.0010119
0.00408475
0.00190932
0.00151946
0.00989736
0.00171567
0.00144712
0.00282129
0.449643
0.0073629
0.00646257
0.00580129
0.225098
0.253894
0.261527
0.00385334
0.00747146
0.011399
0.240784
0.00152458
0.00164525
0.000695985
0.0052061
0.000187259
0.000506295
0.0074979
0.000241594
0.0103883
0.000278333
0.260878
0.0351856
0.00823638
0.00275287
0.00221156
0.00568753
0.00267798
0.265987
0.00384116
0.0310497
0.0021611
0.264734
0.265704
0.000347825
0.000138289
0.00284099
9.03774e-05
0.000974539
0.00537562
0.00929096
0.25078
0.00895855
0.265816
0.00533582
0.00383492
0.00149803
0.00698612
0.00453324
0.285201
0.264768
0.00757819
0.0211854
0.00996171
0.00683623
0.227314
0.00216172
0.00182412
0.0036534
0.000129901
0.292531
0.00295592
0.264071
0.00140894
0.000422188
0.00030742
0.00574644
0.00286328
0.00697571
0.00651568
0.225561
0.265041
2.85036e-05
0.000225168
0.00515573
0.00511893
0.00158314
0.0425271
0.00703253
0.0281034
0.00539804
0.0267899
0.260498
0.0343471
0.00250785
0.000815463
0.0069844
0.00893555
0.0206654
0.0020641
0.00892676
0.0376398
0.00521017
0.0501896
0.00570495
0.000261372
0.00385025
0.236723
0.193473
0.234185
0.000189317
0.258897
0.187266
0.00940054
0.0055401
0.000349565
0.00825118
0.000161954
0.260852
0.00292372
0.000991154
0.00181162
0.0070846
0.00267998
0.256512
0.00498014
0.0223391
0.265786
0.00550056
0.00396156
0.00935622
0.00580477
0.00553253
0.00893144
0.00210868
0.0022797
0.0013511
0.00650302
0.000802611
3.83899e-05
0.00727472
0.000657199
0.236699
0.000213094
0.00462503
0.00265218
0.00976284
0.00416527
0.00118504
0.0001006
7.4121e-05
0.00313285
0.242776
0.0069169
0.00202227
0.260687
0.00218885
0.00453246
0.0023873
0.00668604
0.170991
0.00500639
0.25939
0.260589
0.00214968
3.66272e-05
0.323592
0.00194494
0.00341579
0.0125824
0.264964
0.00238699
0.0079585
0.00802546
0.00558309
0.00235275
0.00767124
0.00948945
0.261411
0.223653
0.0023321
0.181902
0.208853
7.25482e-05
0.00617927
0.209473
0.260584
0.264498
0.00978446
0.00180842
0.26085
0.00695889
0.00800286
0.00227306
0.201301
0.251979
0.000655596
0.0014581
0.00179839
0.00217008
0.195688
0.00198492
0.00178049
0.00578762
0.266053
0.0187912
0.00277353
0.264872
0.258418
0.265963
0.259437
0.000246014
0.00878921
0.236091
0.248573
0.00403671
0.00958749
0.00163847
0.00282508
0.202476
0.0041802
0.0198758
0.229443
0.0015877
0.263315
0.262037
0.266355
0.462691
0.00112035
0.00123286
0.00327274
0.00422473
0.0914435
0.0703477
0.000345517
9.12016e-05
0.0102138
0.00525176
0.0022633
0.0160007
0.00276793
0.265394
0.00410155
0.00239309
0.00293696
0.000158063
0.00867427
0.259191
0.00139758
0.00112129
0.260958
0.266763
0.00841646
0.00236737
0.00271282
0.00908338
0.00159808
0.000966953
0.00762881
0.00679176
0.258437
0.26098
0.264126
0.00504358
0.00915411
0.00826368
0.262016
0.00415355
0.00746186
0.00494341
0.219823
0.00152723
0.262365
0.218542
0.0106188
0.00881256
0.000718886
2.6094e-05
0.242104
0.00432721
0.00290074
0.415754
0.00213669
0.00524433
0.00829436
0.26298
0.00361587
0.00237679
0.220055
0.0039933
0.041897
0.000924552
0.232401
0.0097539
0.264238
0.00330263
0.00595366
0.0102657
0.00405926
0.191736
0.00997407
0.00254048
0.00733415
0.0169592
0.00342976
0.262343
0.0173624
0.196186
0.00542232
0.0076826
0.00102859
0.00525143
0.031531
0.000224672
0.00804732
0.257053
0.188963
0.0111392
0.265019
0.00055524
0.0199326
0.00198618
0.104453
0.000926381
0.00508357
0.265199
0.265302
0.00175029
0.00477492
0.264117
0.000170607
0.00708596
0.00411065
0.0022369
0.00520904
0.00027331
0.00150815
0.00459839
0.24221
0.00587101
0.0173785
0.262175
0.0156938
0.000118281
0.00500068
0.00267038
0.00480858
0.270739
0.0113945
0.266394
0.258206
0.00589088
0.0024395
0.00386264
0.264645
0.000826977
0.00274565
0.00699388
0.003276
0.264367
0.000341893
0.00712548
0.0095647
0.266219
0.264724
0.0103216
0.25784
0.00036997
0.00233654
0.265977
0.21075
0.00670936
0.257002
0.00030352
7.45193e-05
0.000920332
0.0355583
0.00739667
0.000986951
0.213251
0.00156354
0.258517
0.000583504
0.000587196
0.00188339
0.000297867
0.309214
0.302078
0.00250181
0.221227
0.00275093
0.00205176
0.265798
0.00197276
0.022107
0.00446533
0.0039258
0.00139656
0.00577485
0.000118221
0.230498
0.00313851
0.000298729
0.0146994
0.00391877
0.00192635
0.00932155
0.000221442
0.262345
0.0020244
0.261162
0.00845625
0.00380037
0.261026
0.264844
0.239487
0.00580561
0.244159
0.234402
0.00559919
0.00657569
0.428983
0.261559
8.85088e-05
0.00247877
0.24335
0.24806
0.00301077
0.264449
0.250062
0.265611
0.263795
0.000474783
9.44244e-05
0.00552894
0.00382252
0.00730077
0.0259733
0.239851
0.00661446
0.247518
0.000404278
0.000335337
0.00372167
0.212544
0.257801
0.00715172
0.00229737
0.252645
0.00143547
0.00645616
0.00826406
0.000713543
0.25664
0.00408265
0.263431
0.0324535
0.0057132
0.160913
0.00705494
0.00678385
0.00274909
0.374941
0.00409694
0.120722
0.00322736
0.000959063
0.0100859
0.26245
0.263814
0.000216397
0.00306044
0.19438
0.00425085
0.0125141
0.26277
0.162288
0.179186
0.00619288
0.000170963
0.233195
0.0744849
0.263145
0.00275157
0.262576
0.196445
0.00193565
3.32479e-05
0.00118809
0.021623
0.265028
0.00834491
0.180226
0.00859484
0.00156086
0.00651243
0.035559
0.00176267
0.00767916
0.00283629
0.00749529
0.00772067
0.24334
0.00793308
0.00762549
0.261928
0.00256352
0.00584352
0.223276
0.0142749
0.00741021
0.00199624
0.00269877
0.00472227
0.00125097
0.00039391
0.00522027
0.256209
0.00584918
0.000326139
0.00658834
0.00221465
0.0074991
0.00448438
0.164291
0.0453898
0.00409132
0.00070184
0.000172771
0.256832
0.0100544
0.00245213
0.00268408
0.221385
0.00141222
0.262355
0.264422
0.000132202
0.259283
0.266225
0.000873651
0.0018137
0.257955
0.00707795
0.00269662
0.000131556
0.000166714
7.0658e-05
8.66643e-05
7.5112e-05
7.50951e-05
0.000163523
0.000116452
0.000134597
0.00500586
0.0239399
0.00158367
0.000325337
0.201296
0.000833029
0.428217
0.00172342
0.000306757
0.00369377
0.000103087
0.237548
0.000762011
0.00679663
0.00126595
0.00595333
0.00891342
0.000360668
0.260691
0.00326436
0.00450063
0.00740267
0.0072656
0.0488246
0.00436397
0.00502116
6.69023e-05
0.00709916
0.00282795
0.236413
0.00825696
0.0184218
0.265537
0.00266447
0.00314507
0.00240388
0.000144973
0.000386439
0.00239523
0.00270475
0.0010594
0.000973683
0.261989
0.00645226
0.268391
0.00377112
0.184268
0.266797
0.00253017
0.264297
0.0162233
0.00317151
7.60475e-05
0.0284148
0.000403032
0.237596
0.265169
0.0022612
0.00154414
0.00196388
0.00183589
0.261519
0.211666
0.00908771
0.00309031
0.218731
0.00469996
0.000324251
0.243229
0.00159103
0.00939138
0.00578607
0.0061857
0.0146128
0.23998
0.00328014
0.011394
0.00386932
0.00237636
0.163927
0.00430238
0.261346
0.259333
0.2427
0.254328
0.00271731
0.000210379
0.00430037
0.261229
0.00945153
0.00848378
0.00309641
0.00176978
0.0503692
8.94102e-05
0.000426145
0.00418904
0.199521
0.0375097
0.00495839
0.222363
0.36114
0.0035006
0.0258164
0.258507
0.266766
0.224612
0.000362676
0.261304
0.0104148
0.00877622
0.201733
0.264632
0.00141611
0.00116561
0.000991925
2.13107e-05
0.00420284
0.00666517
0.000804884
0.00150514
0.00572612
0.249313
0.00633902
0.0116984
0.0317649
0.00152688
0.00897266
0.00182918
0.00689484
0.264928
0.00916271
0.00648534
0.00398424
0.0101877
0.00413769
0.010192
0.00972383
0.237602
0.00159492
0.00382969
0.00152536
0.000989865
0.0111813
0.0241087
0.240045
0.212113
0.332494
0.0024922
0.263332
0.00216237
0.00834671
0.00111838
0.00125771
0.00295065
0.000911906
0.163694
0.0067589
0.187892
0.00331763
0.00523885
0.00440742
0.00658728
0.263897
0.00870629
0.00668881
0.0007605
0.00672528
0.0632991
0.00497497
0.000928903
0.00694023
0.0068691
0.00530558
0.0101614
0.266354
0.0030459
0.00316597
0.265231
0.264754
0.00250923
0.0052481
0.231152
0.0259837
0.0293364
0.26326
0.226461
0.136842
0.000147603
0.00691711
3.13398e-05
0.251775
0.000642781
0.00845091
0.00915793
0.0137235
0.00838038
0.0992141
0.00373366
0.0101001
0.265773
0.00857394
0.223674
0.00672416
0.226197
0.220955
0.00510359
0.00245388
0.0015233
0.0167329
0.000514264
0.000847674
0.00141235
0.00115352
0.00904691
0.0268765
0.00117591
0.00117279
0.0104535
0.00497885
0.000186892
0.00865819
0.00524224
0.00284028
0.189661
0.258543
0.00668794
0.00832175
0.150399
0.265551
0.00961329
0.18836
0.00521623
0.00431451
0.224526
0.264794
0.268665
0.00137574
0.0294062
0.249077
0.00844156
0.211132
0.183674
0.00573416
0.000939688
0.00131011
0.00227499
0.00534248
0.00497624
0.00026249
0.000366677
0.262267
0.264119
0.0040722
0.260647
0.0075859
0.00264974
0.042088
0.00967423
0.00793724
0.264869
0.00519354
0.00864409
0.00193512
0.00135362
0.257247
0.00310585
0.256131
0.264807
0.00216967
0.000728481
0.000619773
0.00511753
0.230834
0.00187947
0.00512413
0.313615
5.78909e-05
0.248528
0.00268669
0.241493
0.00658133
0.0623068
0.0248753
0.00333418
0.00186214
0.0040094
0.0103857
0.265247
0.00761723
0.00186663
0.014701
0.00296748
0.0557508
0.00322311
0.00461412
0.000848424
0.000483552
0.265699
0.238855
0.00565621
0.00520444
0.0040026
0.00380283
0.00460075
0.0070982
0.212586
0.000394553
0.00515257
0.194725
0.00289194
0.258424
0.00504672
0.00390226
0.00814222
0.265007
0.00431148
0.00139369
0.0017035
0.000180624
0.005871
0.00356254
0.00419133
0.00605688
0.00142034
0.00622289
0.000920187
0.00177834
0.00513472
0.00887593
0.00186984
0.0029052
0.00738577
0.000381119
0.000399869
0.00508543
0.00144392
0.00101984
0.264833
0.00102522
0.0023899
0.263925
0.0106123
0.0078724
0.260864
0.263531
0.0058112
0.0104093
0.130801
0.265027
0.0100166
0.26506
0.26506
0.00533148
0.261072
7.74259e-05
0.00250476
0.000108493
0.000569134
0.00524708
0.0520133
0.00643246
0.00392257
0.00633071
0.266053
0.00443923
0.000209927
0.00348432
0.00121598
0.00198378
6.74895e-05
0.00334032
0.00242192
0.000408155
0.0137517
0.00025293
0.258057
0.259692
0.0152803
0.000331952
0.243155
0.241339
0.18527
0.264097
0.00369231
0.00482476
0.00836722
0.0406555
0.000556389
0.0158276
0.0101433
7.0865e-05
0.00187578
0.00308858
0.000836988
0.00307835
0.00049152
0.00433472
0.264673
0.00245033
0.0016968
0.00143111
0.206316
0.00916735
0.00391572
0.255953
0.00300282
0.00270993
0.000441474
0.00169873
0.00416512
0.0458154
0.00316021
0.265021
0.260427
0.264765
0.000338186
0.0894102
0.000240371
0.000200811
0.00355147
0.00568726
0.00300984
0.0032917
0.00791572
0.00174711
0.261393
0.000586957
0.00683477
0.000359814
0.260605
0.00141322
0.00939511
0.000274133
0.0560287
0.00346097
0.00182386
0.265186
0.259684
4.84994e-05
0.26482
0.000389724
0.00175182
0.00180508
0.00350413
0.00673072
0.00206161
0.00251173
0.264726
0.00148423
0.0100146
0.0436657
0.00697286
0.000503459
0.00254266
0.0335756
0.00353189
0.261013
0.00554554
0.0101844
0.255029
0.00180163
0.00320719
0.00290284
0.00879492
0.255111
0.253855
0.000306852
0.198324
0.00027955
0.00118099
0.265356
0.00853753
0.00937323
0.00560204
0.00774695
0.00145899
0.00554759
0.239742
0.0760753
0.00110078
0.00512293
0.00305444
0.00376398
0.080819
0.00267999
0.271972
0.0151759
0.00563492
0.00360736
0.000715404
5.66062e-05
0.00145606
0.000144152
0.00736195
0.226425
0.00131967
0.00618268
0.257259
0.00101079
0.226044
0.262956
0.251805
0.00284561
0.00214573
0.00364801
0.00711177
0.207745
0.00699984
0.00126078
0.00341927
0.00523024
0.13986
0.00453865
0.00564572
0.00263488
0.265213
0.231595
0.00858914
0.00409831
0.00336641
0.000788239
4.15837e-05
0.0592747
0.00039783
3.32429e-05
0.00157603
0.00410454
0.00297583
0.00873643
0.0548672
0.00709002
0.0036832
0.00414062
0.00564902
0.000390852
0.00320681
0.0268441
0.00954091
0.00195486
0.000777664
0.0403785
0.00755745
0.000347457
0.00910397
0.261614
0.228432
0.00498132
0.206846
0.264524
0.00458459
0.000151642
0.227941
0.00499394
0.000714061
0.000262551
0.000725374
0.255411
0.224207
0.232562
0.00409174
0.00191435
0.00108821
0.00275153
0.00352989
0.000376913
0.0193334
0.0181834
0.167452
0.256888
0.00675074
0.00146687
5.30178e-05
0.238608
0.00287685
0.0058198
0.000293285
0.000632776
0.00586888
0.160629
0.181848
0.00537784
0.00613099
0.0854051
0.00872918
0.00381664
0.264324
0.000272353
0.00550078
0.229806
0.263544
0.00707795
0.228655
0.00986188
0.221252
0.000233028
0.000356862
0.00139187
0.00243786
0.0015093
0.265732
0.00213117
7.14765e-05
0.00269225
0.00531466
0.0019444
0.000219529
0.00753702
0.00399602
0.00587667
0.00168198
0.255078
0.00611279
0.00143659
0.00181102
0.0079125
0.000134044
0.256001
0.000439011
0.00640037
5.04206e-05
0.00453981
0.0607824
0.000105305
0.24989
0.23916
0.263976
8.42607e-05
0.00252226
0.000729757
0.00641484
0.00262165
0.00144415
0.00429036
0.26402
0.00019139
0.00752385
0.00523754
0.00627597
0.00298104
0.00359889
0.219957
0.00239859
0.00127504
0.000334264
0.00580119
0.00166311
0.00406351
0.00118975
0.000293086
0.00272727
0.00429721
0.010006
0.00132774
0.263177
0.00969286
0.000717675
0.000867103
0.00353225
0.215598
0.171622
0.260613
0.0094007
0.137751
0.00208634
0.00526435
0.209356
0.00361198
0.264437
0.00525216
0.00216541
0.00358802
0.00278805
0.258919
0.00144095
0.00336813
0.262249
0.264801
0.00876698
0.265238
0.000371007
0.260591
0.00776862
0.000394128
0.00604085
0.0122103
0.00189518
0.131016
0.261061
0.00187706
0.0245939
0.00267862
0.264132
0.00203948
0.00187356
0.08566
0.0672065
0.19502
0.000461574
0.262765
0.000358802
0.00572665
0.00217525
0.000114436
0.000818847
0.000812433
0.018542
0.00422744
0.00530363
0.261995
0.00685565
0.250932
0.183493
0.167245
0.0153397
0.108802
0.0130606
0.00389292
0.000145023
0.00126959
0.00213517
0.232227
0.00309688
5.13399e-05
0.127117
0.266058
0.0163019
0.0031367
0.00890219
0.00238799
0.00198993
0.00481407
0.00038133
0.00253409
0.0018058
0.26541
0.00711313
0.00620125
0.00216045
8.61651e-05
0.0025697
0.000253321
0.00428953
0.258125
0.000134265
0.00266317
0.00854178
0.238389
0.00113312
9.9106e-05
0.000348689
0.0106417
0.01393
0.00280344
0.0066856
0.00207954
0.00269635
0.000797054
0.00239035
0.0180644
0.0102576
0.00583065
0.0100356
0.00454133
0.26259
0.00844789
0.00356777
0.0148769
0.0815014
0.26499
0.00809182
0.00268322
0.00441295
0.000488045
0.00247214
0.3108
0.00139295
0.00368495
0.249441
0.00144723
0.0015689
0.00133299
0.160072
0.262523
0.262605
0.260833
0.258286
0.00165772
0.210168
0.00522476
0.0044424
0.0176875
0.000339229
0.0229303
0.0614163
0.0185257
0.256352
0.00912775
0.000678257
0.00877008
0.00339255
0.00610582
0.00540519
0.264213
0.00408273
0.00434899
0.000689206
0.00785979
0.00917375
0.0021104
0.258509
0.00534176
0.203825
0.00326037
0.000205363
0.257784
0.0003934
0.257674
0.0013122
0.00179222
0.000784766
0.00140098
0.00315509
0.000415148
0.0065433
0.00148043
0.0082508
0.00106875
0.00116583
0.0029075
0.00221245
2.29749e-05
0.258768
0.00237606
0.00277285
0.253674
0.000279813
0.00164684
0.00281113
0.0026897
0.233229
0.0170377
0.00311494
0.0106416
0.266669
0.0576743
0.00116847
0.00401697
0.0148273
0.0100153
7.73233e-05
0.000994956
0.000822739
0.00342439
0.00319797
0.0343108
0.000236506
0.00165943
0.00357971
0.00199931
0.237344
0.00218026
0.177704
0.00257064
0.264499
0.000276048
0.00755667
0.190742
0.00961828
8.29616e-05
0.23254
0.252323
0.00228022
0.150184
0.00867913
0.00916551
0.264816
0.00398587
0.0433022
0.000637128
0.006668
0.000456802
1.41443e-05
0.00216793
0.00727169
0.00128144
0.00120764
0.264757
0.255953
0.00665866
0.00672411
0.178886
0.00256326
0.445924
0.000341087
0.00590871
0.00283392
0.000810426
0.265228
0.000996939
0.050008
0.00253728
0.00405326
0.00622622
0.0087163
0.00094249
0.00155155
0.000309599
0.0088179
0.000199198
0.0192964
0.26394
0.265468
0.00130052
0.262316
0.00225563
0.00809555
0.00379177
3.50057e-05
0.0026435
0.00909399
0.00325634
0.00142899
0.00169913
0.00243122
0.243877
0.265126
0.00560091
0.000349301
0.258581
0.00311029
0.00950042
0.000424548
0.00750251
0.00320438
0.000207877
0.000330411
0.000261026
0.26162
0.0460262
0.00856843
0.00431281
0.261273
0.000760228
0.00597424
0.00303706
0.00181104
0.0103429
0.258742
0.00274359
8.81024e-05
0.240054
0.00882289
0.371266
0.000379132
0.223297
0.220071
0.00645499
0.00377101
0.00712227
0.241331
0.00185192
0.023823