/*--------------------------------*- C++ -*----------------------------------*\
  =========                 |
  \\      /  F ield         | OpenFOAM: The Open Source CFD Toolbox
   \\    /   O peration     | Website:  https://openfoam.org
    \\  /    A nd           | Version:  8
     \\/     M anipulation  |
\*---------------------------------------------------------------------------*/
FoamFile
{
    version     2.0;
    format      ascii;
    class       volScalarField;
    location    "4e-05";
    object      T;
}
// * * * * * * * * * * * * * * * * * * * * * * * * * * * * * * * * * * * * * //

dimensions      [0 0 0 1 0 0 0];

internalField   nonuniform List<scalar> 
23640
(
84.555
68.9309
248.291
285.115
80.6934
157.037
69.4541
108.715
106.792
124.915
271.02
81.3588
79.7959
73.8445
170.677
155.53
79.1352
246.729
261.528
100.984
268.11
174.104
267.745
267.414
89.6663
76.1971
156.648
108.392
67.374
89.7198
74.9494
299.84
268.186
88.0407
103.707
163.99
79.8177
70.7156
121.677
272.494
83.0142
107.306
80.4952
107.731
290.716
172.337
81.3015
73.4728
124.209
115.023
299.551
248.888
158.309
67.7629
285.302
201.207
128.263
77.5333
59.1389
292.105
74.1138
169.445
276.799
251.188
61.0896
250.865
158.99
86.4878
242.104
82.4117
274.719
87.3038
261.296
71.1398
152.96
299.746
202.054
79.0707
261.932
276.059
180.194
128.318
59.9215
60.1815
60.8638
153.166
248.452
271.254
263.291
169.352
63.2319
83.3199
122.458
261.742
247.756
89.7114
252.5
185.06
106.373
125.731
118.811
67.7304
267.665
65.3916
96.5266
71.4139
281.374
64.0601
82.2551
103.673
71.8966
261.483
90.895
82.412
161.8
58.2149
168.279
71.1953
84.6047
90.8236
268.703
297.97
198.402
298.812
129.858
270.71
299.661
139.921
151.003
79.927
120.544
116.633
80.7968
140.916
66.8182
271.262
270.076
88.2966
270.694
254.864
105.291
131.284
260.586
271.096
260.665
95.3467
272.24
272.653
63.4565
248.732
119.37
171.187
61.1633
279.565
113.643
68.111
69.483
88.4774
150.321
154.994
180.168
145.622
165.163
145.066
60.4947
57.9721
277.596
159.618
281.649
115.892
73.2881
158.819
150.041
81.245
278.39
278.404
80.163
160.312
276.237
86.2689
290.524
171.493
88.1326
101.966
72.3249
214.395
127.158
111.361
292.223
104.784
113.268
271.294
297.393
60.9476
68.3736
272.031
96.6851
153.844
143.219
148.24
266.427
94.4867
73.5753
106.975
263.75
60.6061
144.756
267.826
146.684
277.823
76.507
85.6793
90.7317
60.7387
175.233
98.955
76.1841
100.603
129.891
82.1065
89.6283
270.907
266.527
81.6258
267.077
89.7239
75.9641
298.529
87.4797
63.2731
84.3091
66.2819
96.0788
84.3762
88.2922
128.159
274.601
98.9724
63.4584
182.459
121.163
167.953
83.4542
107.579
283.908
69.5533
109.128
177.608
276.638
269.732
292.599
76.2938
81.7837
278.529
59.3759
272.609
203.211
65.8375
283.494
282.966
288.741
72.8893
115.967
82.5128
73.0329
81.0276
144.274
110.206
59.4268
245.528
110.12
63.0429
268.981
292.022
138.935
88.6003
72.725
298.044
251.573
80.6439
270.846
74.0157
212.439
271.757
123.146
171.124
121.508
166.173
67.7284
271.591
96.6344
72.0575
97.2271
133.849
270.51
97.4979
80.0471
71.5685
79.0867
86.631
162.358
252.154
298.41
87.9945
269.479
62.1197
119.468
157.035
287.255
260.877
65.517
134.021
278.469
261.582
266.046
142.343
108.99
248.953
248.844
142.33
99.7012
88.1113
104.428
107.335
66.8247
131.52
294.849
99.1819
113.741
299.787
213.429
105.182
102.992
114.726
99.2171
89.3548
148.745
107.743
98.5471
78.9149
163.533
256.615
112.78
298.217
271.279
245.1
161.27
81.5626
88.8232
96.5518
282.7
128.91
65.1034
70.8289
102.833
60.2972
115.928
71.8609
276.729
271.079
125.764
269.077
254.55
87.6089
97.0518
61.501
62.0435
112.811
261.951
88.4943
149.641
258.782
65.3955
266.328
128.663
64.8688
296.419
126.162
99.3651
145.037
261.033
258.651
99.0002
256.204
103.289
70.2366
130.905
56.9934
272.088
64.4888
241.986
165.836
199.697
150.325
114.931
269.539
297.761
76.5602
81.0201
157.543
129.331
277.51
135.667
64.0742
80.216
76.4606
286.259
68.4188
136.589
145.046
155.759
276.524
280.14
110.265
272.324
81.407
168.459
83.6282
121.269
93.8646
283.241
242.84
78.3778
165.305
126.417
60.5043
298.561
198.267
269.193
131.209
75.3843
292.554
277.397
267.298
127.959
271.405
151.834
167.795
173.54
295.781
115.718
276.753
181.883
130.517
197.302
131.604
160.439
113.149
267.872
112.66
299.998
151.538
278.783
158.076
237.883
67.629
66.7931
119.183
283.899
126.684
120.634
121.017
89.9525
299.999
142.597
90.559
146.366
222.905
115.927
114.256
117.985
93.5092
288.998
84.8847
114.965
172.993
77.7647
299.952
132.208
299.13
120.54
73.5818
101.329
129.183
160.265
144.301
267.68
87.5155
76.3384
75.2752
144.045
298.909
78.557
269.338
97.2072
75.7827
119.613
210.7
152.741
75.0512
88.9184
274.759
61.0871
92.4567
92.6903
59.2638
115.274
64.9101
71.783
80.8924
173.912
99.4601
137.212
144.345
266.812
84.1496
89.6721
69.0183
107.822
272.62
162.662
237.271
299.999
181.895
68.0375
91.1674
265.732
117.003
261.323
58.8566
77.0224
267.166
136.968
190.637
188.223
84.3921
152.171
114.202
64.5244
100.371
149.866
92.5689
98.3249
78.3312
72.8113
78.9428
183.379
261.781
89.7154
89.4082
179.767
84.0133
193.248
84.095
170.908
85.8553
91.1676
167.722
269.995
278.408
160.969
271.791
91.4612
149.563
256.882
267.302
143.993
264.94
167.525
133.743
299.997
77.6728
97.1086
68.5629
70.5904
261.821
186.655
148.245
104.755
79.7346
292.752
105.61
71.5991
117.175
261.955
264.132
145.551
103.901
75.5073
265.085
276.767
91.8594
81.4099
108.444
59.2689
249.646
98.6639
140.394
93.8541
116.882
272.231
268.111
284.189
136.368
86.6165
144.174
124.229
104.649
85.3325
265.522
91.3897
119.358
82.9179
91.6578
151.735
120.736
189.808
98.9521
72.6328
298.82
263.523
80.0541
88.9821
276.956
79.6189
247.23
73.9375
266.728
90.2771
180.152
62.272
118.584
120.913
86.8667
72.0164
287.302
89.5971
74.0979
76.9972
168.478
108.022
207.611
271.903
79.8182
166.312
105.607
266.455
139.518
68.6865
81.6116
128.527
298.303
260.769
62.604
99.5403
294.257
152.62
267.87
81.3203
162.78
100.856
165.278
58.3457
134.194
201.323
232.069
115.409
297.942
262.241
132.803
298.328
103.377
76.4624
142.236
252.806
74.3296
85.1628
85.6861
74.7057
274.918
293.813
108.52
91.6986
100.895
86.9411
65.9396
286.385
86.3672
178.657
298.165
66.913
162.06
235.911
67.6136
235.398
77.1597
167.806
90.9174
270.234
89.9732
299.972
251.951
91.3302
268.33
77.4098
96.9792
272.311
115.445
273.403
114.901
262.155
271.13
144.169
77.1307
221.051
171.295
158.805
68.4389
267.037
192.091
107.39
170.919
109.382
70.7384
110.572
272.857
72.7198
69.0763
93.1741
282.915
100.962
71.8779
274.867
271.339
69.6846
88.5603
224.675
81.5674
275.173
103.814
140.176
86.2813
275.347
142.584
63.9878
220.897
72.226
255.235
64.274
88.513
219.415
61.3239
93.9801
85.1266
87.2249
299.945
144.177
63.3607
247.017
273.735
70.6364
58.866
233.599
104.185
285.264
200.606
272.552
93.3016
257.527
110.469
158.319
98.2385
168.08
90.8689
264.627
81.1997
279.92
108.819
239.646
155.039
105.825
299.051
188.679
151.173
189.898
299.042
138.147
62.5874
101.983
91.3594
74.874
155.256
259.348
90.8601
82.153
269.889
171.935
275.716
85.7773
272.594
109.261
133.951
95.9442
71.9105
111.502
293.592
68.5873
262.035
273.428
87.2726
141.983
266.706
82.4085
286.436
140.744
117.777
67.5003
257.749
174.404
82.1122
109.22
224.36
262.261
109.988
217.62
272.79
121.571
74.4628
108.138
234.145
86.6215
142.994
77.1143
252.543
90.5831
102.781
146.08
199.984
164.307
83.2906
252.7
117.141
269.924
98.644
70.436
66.7312
279.782
86.5189
273.437
82.8234
85.129
80.2094
149.104
110.513
260.214
299.997
118.979
120.279
109.187
120.903
113.025
87.9771
91.6898
281.123
169.879
79.6857
269.724
71.6975
293.559
175.339
136.813
273.502
276.454
269.834
299.993
68.4933
292.567
187.211
72.0249
62.3288
104.3
83.1998
252.35
75.6403
143.618
125.724
275.942
121.086
285.993
117.584
152.688
140.029
82.0716
183.95
273.071
111.258
192.231
146.619
102.566
266.549
265.913
140.459
79.9974
75.6338
235.928
214.096
122.649
160.831
109.991
66.148
147.691
65.0281
124.806
113.023
295.345
89.6279
178.848
280.948
264.548
273.956
181.169
257.171
87.8659
272.345
61.3551
160.691
69.2386
107.543
139.266
299.605
252.15
261.561
271.282
92.7974
289.513
131.336
172.655
87.0119
105.61
275.532
159.828
62.5153
138.407
162.411
274.093
126.894
273.425
237.98
66.1854
72.8772
79.8454
270.814
69.2923
183.285
64.9441
83.4375
280.094
131.161
71.2235
61.36
99.7679
62.919
263.806
102.226
81.505
157.04
74.4738
294.131
58.8664
75.2431
268.27
87.6643
271.181
106.121
167.678
80.8798
86.742
180.297
94.3362
275.266
193.906
62.2245
82.7816
74.7687
76.2384
261.728
100.322
83.7731
270.983
261.354
99.2298
285.153
95.9498
87.4753
273.641
106.166
294.204
59.1332
104.652
159.226
128.877
101.995
240.534
105.489
181.202
166.377
134.725
64.3451
176.64
214.797
72.6808
93.2749
73.6493
68.8506
269.32
137.166
132.46
68.3157
92.8799
227.341
262.402
297.608
62.1881
270.422
111.704
86.1627
66.3767
283.861
256.582
75.2763
257.866
110.916
116.143
94.6522
77.0311
96.0128
82.5586
167.878
101.488
77.5067
100.425
273.365
263.101
67.89
76.6959
162.723
102.24
173.672
294.02
103.501
64.331
81.4938
292.035
270.204
261.97
91.7689
246.567
95.8857
229.194
97.7985
135.99
266.491
90.4101
277.026
76.5877
121.457
83.2302
149.759
210.236
180.407
277.219
66.0495
128.924
192.641
182.525
98.3521
138.197
74.6445
64.7365
270.112
80.1242
152.923
101.938
195.095
219.942
170.409
115.59
262.928
277.339
82.8206
106.227
92.1836
80.1257
123.727
163.208
83.7617
83.1064
72.6093
193.353
72.6402
104.861
99.0746
120.103
282.096
72.8051
99.6045
268.803
91.1268
105.785
179.064
259.894
113.566
75.5379
75.5507
96.9689
94.2621
153.977
217.295
171.15
119.371
277.961
80.2316
102.528
66.9889
74.5914
298.668
92.8319
93.003
92.8255
291.28
262.421
156.182
156.82
278.909
299.993
63.1386
78.0627
102.171
156.385
70.0061
251.988
159.358
62.6533
271.45
121.197
145.132
281.915
287.789
74.6899
188.363
137.613
71.6284
89.3204
128.948
89.3281
67.6858
206.329
260.249
119.72
269.366
87.0804
135.659
250.925
75.744
123.834
111.316
257.949
262.954
99.6918
178.351
113.515
147.813
112.378
189.224
132.162
118.166
92.2274
262.812
110.339
87.2594
86.3832
261.353
264.258
66.2305
78.0047
265.479
184.357
57.9707
268.782
82.2149
255.308
89.9061
152.445
103.072
86.6098
73.0466
71.9386
299.998
127.217
272.337
77.2622
114.021
272.514
86.1753
64.6682
119.976
139.571
270.278
177.105
271.643
59.6727
85.3547
99.5702
77.1305
102.337
75.4443
75.8605
219.871
83.7058
108.689
70.5832
140.718
91.9564
242.589
270.513
82.1004
275.689
219.361
289.82
110.881
181.757
64.5288
258.445
91.8855
273.101
72.6152
76.2123
70.0921
94.3687
97.5465
81.4385
107.059
149.551
281.805
185.12
77.9453
95.0702
248.398
126.591
183.578
299.68
182.493
102
63.2807
132.803
126.799
71.4467
119.54
73.9024
116.893
272.777
125.34
255.907
180.219
121.503
92.8015
78.6887
161.927
67.3366
96.598
274.927
120.963
221.449
268
95.8249
273.788
198.135
272.575
105.37
89.388
189.917
244.661
82.7291
269.508
188.671
83.5655
77.3823
77.1615
228.28
111.026
81.125
173.001
129.265
91.8272
170.746
137.342
260.998
60.7877
67.7752
98.4247
72.976
72.2742
142.548
74.2019
73.3216
91.9703
299.999
117.564
132.524
101.97
261.055
270.571
273.35
97.0257
129.229
118.722
266.346
69.0531
73.127
73.3266
98.4678
74.6604
66.0472
108.098
59.4054
131.263
68.3522
272.558
179.781
109.468
87.7097
76.0009
123.661
81.0827
280.975
96.9486
160.756
75.5182
276.177
276.831
61.9164
62.5498
87.0696
84.5262
77.061
101.421
115.071
269.641
123.422
278.437
157.052
89.1521
72.3545
107.596
93.1399
299.864
274.803
183.02
148.06
119.203
194.055
261.311
79.8054
72.4298
89.0372
125.357
299.938
89.1859
283.311
73.3256
64.7266
69.7126
109.032
81.6348
117.445
142.734
261.222
275.131
188.231
75.497
104.835
119.09
72.0429
167.633
114.901
161.609
99.9563
148.455
273.595
157.295
79.2185
68.4195
160.204
136.264
148.473
74.9643
111.778
158.634
96.4994
178.186
112.17
73.6112
168.714
265.013
251.602
263.869
63.7358
272.634
247.196
173.246
107.442
62.8631
167.965
75.5223
272.699
82.4281
68.477
71.8441
108.115
86.5886
271.491
94.82
145.501
278.342
143.145
165.352
160.496
101.181
151.585
111.204
80.8306
82.2361
72.6039
150.014
68.868
150.017
195.483
66.8025
264.721
58.217
125.841
85.2827
125.018
167.613
122.15
86.6132
75.7721
89.8489
266.847
216.17
80.0217
292.627
80.203
93.2395
107.505
116.011
240.689
200.92
290.358
292.81
75.9146
246.487
300
78.465
87.3138
132.868
275.199
83.0081
123.498
107.618
107.652
77.7739
191.924
115.873
289.086
260.262
77.2428
244.859
255.776
110.848
107.072
254.742
273.56
276.371
177.159
72.3021
293.118
145.721
128.367
76.8548
254.005
269.677
66.7449
74.6984
72.2133
75.9602
250.649
73.6761
81.1821
108.344
276.485
144.069
81.4766
278.475
291.566
278.339
293.295
74.2044
110.78
264.551
268.632
90.3407
117.893
70.3673
90.383
253.101
162.229
145.337
262.577
69.8138
283.981
288.235
278.478
299.998
71.3648
65.078
94.5974
92.1939
205.198
197.189
71.2762
72.7745
127.448
105.018
82.1829
143.18
81.0035
277.253
150.108
78.3133
89.3981
62.2714
121.073
272.865
67.112
77.6457
294.637
277.54
164.932
83.609
86.9974
122.421
71.4941
77.3023
108.274
201.757
271.828
299.585
283.374
145.935
191.352
169.882
296.114
166.178
118.004
103.057
261.302
73.0439
273.383
258.72
133.685
151.36
67.626
223.506
266.051
102.153
89.4052
299.995
75.6078
136.426
126.18
285.652
95.1456
82.3544
259.229
127.946
166.414
59.5249
263.913
113.102
282.235
91.414
99.4222
167.866
138.506
249.18
188.523
91.1474
117.857
130.244
88.1437
274.7
130.767
249.915
106.638
128.827
62.5092
106.403
151.244
58.0508
128.787
297.883
247.924
151.434
274.957
109.567
149.719
79.1683
210.451
59.6117
172.899
277.823
277.22
75.0841
99.5692
276.851
81.457
104.243
90.6971
79.7294
108.243
70.3738
68.8776
102.967
266.125
106.427
132.447
274.201
128.333
130.287
102.041
85.4306
109.388
299.286
120.709
280.311
297.574
108.793
78.1147
108.514
280.572
77.8997
86.3289
146.531
93.5905
277.162
66.5735
115.469
175.066
280.862
275.125
139.275
272.076
67.7949
83.5048
276.374
255.423
102.965
297.919
72.159
95.4276
86.4885
158.315
120.306
101.647
259.037
79.0933
298.235
68.225
104.04
82.7144
77.3214
300
300
84.5114
259.318
87.4326
75.8924
275.937
77.3483
139.885
92.121
101.408
67.172
108.434
78.745
262.562
89.7219
66.2388
125.795
96.9032
78.7114
183.102
60.6169
274.78
107.614
296.446
152.704
104.329
272.862
275.055
265.607
108.384
267.02
264.066
98.4861
116.104
299.997
273.036
106.621
78.4436
266.765
268.394
89.5356
277.343
268.804
282.09
275.451
83.979
68.7214
182.826
96.4007
141.711
152.179
266.173
196.646
268.5
65.7763
74.6669
148.414
256.598
271.547
114.452
77.0332
270.023
70.8258
187.643
120.625
114.266
298.532
114.501
274.071
152.196
110.551
236.824
115.827
148.72
87.6564
299.958
98.3349
216.905
84.2757
77.3442
170.668
285.699
282.978
58.3784
83.8775
250.133
141.698
121.599
273.512
237.032
242.24
107.133
61.604
263.637
191.372
274.913
87.9883
286.427
254.676
78.7753
213.035
65.4756
138.383
276.397
111.033
245.056
164.601
72.6747
147.612
156.13
72.3078
137.852
88.7842
115.353
182.032
266.99
137.496
156.303
273.148
87.4179
99.2075
259.732
127.077
119.781
78.0031
86.868
96.0842
73.0377
64.6239
118.805
296.07
144.814
63.0413
115.928
80.2968
120.502
92.3062
238.104
171.679
98.6329
73.5574
62.3021
294.648
146.062
87.0335
86.7751
259.886
67.4481
274.337
275.666
61.3531
272.742
280.715
71.1417
71.8974
271.459
114.56
85.6988
61.5272
59.9152
120.864
65.5768
87.222
123.144
58.6164
63.3432
60.2724
95.3095
143.284
108.703
64.9806
252.716
71.3744
299.998
82.9794
67.5721
87.8447
74.7951
265.203
71.8719
107.344
72.2113
101.93
122.725
66.0489
272.53
91.5996
91.7665
118.79
111.357
182.208
91.9095
95.2597
157.304
140.242
87.0653
264.331
115.864
144.564
278.138
85.4125
89.8402
82.5517
90.7073
61.3426
83.6042
81.5185
62.0632
69.5861
273.608
203.474
298.992
96.2386
245.933
278.449
89.8599
298.556
129.428
84.6568
120.734
157.254
63.3745
265.011
277.986
88.7906
70.1428
82.8335
75.5517
287.037
259.04
129.578
84.0707
258.317
101.291
67.3858
266.562
83.8118
131.273
101.457
195.003
130.699
266.914
91.9351
120.994
96.8792
85.0276
237.811
95.7043
273.98
292.35
266.819
270.892
86.5604
77.0988
91.59
273.001
190.678
173.309
89.4842
72.3641
172.327
76.6825
77.3839
91.0459
252.301
160.305
133.822
259.973
299.95
147.334
149.497
271.766
278.117
260.679
77.1248
287.468
137.523
120.814
252.893
280.03
67.461
64.0141
61.3584
203.788
90.9646
102.346
104.692
72.2377
180.092
268.36
161.949
134.783
159.307
68.942
184.342
75.9503
120.724
276.236
122.935
166.732
97.8475
173.165
103.326
114.034
188.565
265.29
72.3708
96.6409
68.8526
68.1705
151.494
151.194
266.954
256.516
299.987
84.5269
273.926
76.0046
118.25
63.0591
72.8677
82.721
59.3904
238.198
136.975
247.076
86.6875
105.846
101.218
112.236
275.606
135.153
132.515
87.4655
154.917
192.926
199.35
60.2828
139.88
116.968
96.4299
171.572
276.728
89.8382
89.9924
274.983
280.386
79.216
106.991
262.957
149.422
150.955
275.064
261.63
225.074
92.1836
107.924
157.887
269.992
70.4685
133.81
116.995
124.604
110.868
207.39
95.7932
120.71
275.805
111.222
260.672
102.984
261.016
259.497
177.561
78.1448
69.1056
131.076
67.5772
80.3819
76.7594
63.7084
119.411
159.944
74.0667
73.6827
152.364
104.091
75.7869
203.195
121.374
88.4433
247.257
271.965
102.277
128.759
231.644
275.584
125.005
247.955
96.4153
93.34
260.888
279.419
299.677
67.0926
152.162
268.312
116.566
255.61
245.78
104.057
73.4631
73.4352
87.7161
187.191
103.327
72.0023
61.0055
286.002
282.159
100.418
273.578
116.168
85.2412
164.642
183.203
107.086
278.687
105.152
121.928
76.8952
66.6967
298.256
87.5849
270.894
274.718
75.6585
73.1987
87.0623
104.551
262.848
78.2257
104.544
299.972
169.484
268.131
85.5833
265.966
159.946
184.186
151.9
84.8622
76.3428
91.3627
145.945
276.532
122.36
76.5127
134.262
83.4871
176.613
91.1989
96.4811
107.346
68.4936
278.116
265.444
98.0825
104.644
89.7466
88.8041
103.822
172.948
256.028
69.5111
102.252
249.589
89.0673
297.817
95.685
96.9777
149.374
280.666
95.325
67.1447
73.9194
73.1541
109.077
100.805
90.7372
100.059
79.0338
115.596
67.9714
75.0203
146.668
165.203
76.4877
81.8393
132.301
72.9989
66.7757
95.6743
78.8235
77.8501
275.048
62.8839
83.4643
282.443
116.725
145.158
273.79
284.33
109.023
129.251
224.608
280.49
186.083
274.865
298.079
106.33
289.618
73.4405
78.8488
73.4555
86.5632
105.168
177.697
169.288
97.1801
101.859
281.312
102.995
59.6995
92.9178
66.6444
73.7457
148.366
91.8479
86.8393
66.9215
138.091
57.6711
271.689
272.881
157.46
62.938
266.643
266.899
246.35
274.397
87.9809
108.778
134.07
165.429
67.3545
128.773
144.504
143.406
82.6442
90.2733
67.7145
90.2077
67.1805
91.1286
276.966
78.038
71.3296
67.858
256.269
139.207
89.501
296.377
82.7461
86.9449
65.4184
71.2484
136.27
174.359
90.5819
278.477
294.265
277.146
65.3357
203.34
71.8128
74.4443
97.176
144.988
89.7744
86.4528
166.409
75.9607
273.044
83.1643
111.313
65.8494
295.681
67.2904
127.547
67.8063
176.318
86.2484
72.5558
278.536
293.947
214.692
278.073
65.1337
71.6772
75.4486
88.0563
137.813
75.1088
88.3557
275.884
68.2812
138.504
177.032
121.001
108.781
79.5117
170.689
86.7618
273.859
106.803
177
270.429
75.1696
90.8576
88.0188
115.508
270.458
270.711
65.5929
250.943
73.1445
64.2645
275.064
110.409
128.672
152.405
147.777
70.7733
102.789
266.527
196.501
71.7024
146.474
89.6686
88.9567
199.764
85.4064
299.67
126.026
205.358
97.8823
68.823
189.849
72.5627
75.0924
171.542
261.582
67.2643
100.52
294.074
71.128
261.284
284.258
269.702
88.4365
76.7687
95.2721
161.102
254.271
159.699
73.5376
92.5738
121.216
228.27
100.229
107.997
85.0793
278.748
263.015
165.855
100.092
85.6254
80.7626
152.478
179.364
66.1222
188.364
73.2859
126.66
104.534
114.789
175.067
111.956
88.0844
144.516
109.945
73.2456
92.112
154.756
126.06
74.0728
74.9691
162.658
139.728
63.7422
148.519
295.948
261.696
103.563
254.391
275.907
92.9366
64.3413
262.084
176.886
75.269
69.063
70.3344
270.602
260.044
263.265
103.158
77.0224
75.3091
81.2899
93.2783
72.3289
135.031
140.521
239.234
271.869
113.035
72.6625
187.545
264.956
82.0115
108.927
70.404
70.9287
111.56
236.287
245.016
115.296
116.893
201.466
135.908
152.434
276.432
71.0203
142.012
262.498
284.407
136.448
262.334
179.461
259.243
58.6744
68.0013
69.8895
77.9676
68.8618
278.751
75.6794
120.738
85.7322
103.395
73.2222
59.6571
121.242
89.6972
101.015
103.593
270.392
162.792
71.84
72.3073
155.981
74.7396
271.502
66.4765
104.054
164.122
102.134
186.958
68.0666
269.212
265.579
282.261
81.509
85.2727
70.1082
204.288
82.9729
71.6389
100.605
282.134
57.8966
119.513
110.867
108.918
89.615
114.31
258.712
77.9102
77.7949
63.1075
99.2417
82.931
110.496
79.2934
72.6154
88.0383
91.4975
181.209
68.5002
284.026
196.423
110.243
77.9141
94.8052
257.461
240.846
273.502
122.744
227.51
85.228
106.41
255.017
94.1463
276.94
185.382
79.7101
146.18
81.3448
271.979
67.9293
85.3745
285.851
278.999
139.307
276.432
61.7356
273.515
126.002
81.4872
140.272
142.353
82.356
222.842
292.392
72.462
144.615
80.9886
282.547
81.5179
76.526
200.677
187.379
249.163
133.304
285.582
62.5118
103.902
80.6561
76.2003
73.7808
73.2013
146.109
90.9792
103.714
287.175
116.866
269.51
244.583
238.701
128.544
211.914
136.127
100.32
74.9098
69.6983
75.6475
262.968
90.1815
147.339
220.23
280.794
129.227
90.6219
133.354
77.6517
78.0554
102.174
63.0579
82.861
72.3713
281.1
113.769
101.66
76.775
130.167
79.2967
69.5933
102.58
271.841
64.2349
85.9894
153.011
264.848
64.1639
63.7113
61.2187
116.222
130.136
87.2963
120.622
81.3322
85.5987
71.1585
83.4725
164.647
175.348
108.879
124.275
93.9982
274.994
119.4
94.4685
135.408
194.571
276.95
118.568
85.7151
93.8446
72.3624
108.043
299.999
67.2921
87.8739
268.408
69.2163
71.798
66.5455
236.484
274.049
286.903
273.761
299.421
83.5954
255.105
105.449
103.03
156.492
61.5512
149.989
187.952
134.284
271.172
165.156
81.7053
147.583
92.9911
116.739
106.369
275.862
132.402
91.9437
69.0519
113.251
123.822
76.4838
271.816
102.609
255.39
92.5279
76.6554
298.462
67.969
271.365
99.3116
71.7181
72.2222
77.1636
92.4116
68.0547
101.728
71.4359
142.922
72.5131
69.0058
88.2749
76.9453
161.51
271.956
77.3367
87.5051
270.253
64.8847
70.3636
86.7256
85.9307
263.279
145.361
94.3526
158.351
277.527
191.168
94.2309
89.8381
126.151
145.223
105.207
61.1053
89.1566
87.9414
92.7684
166.862
134.752
70.5045
100.922
113.235
265.101
80.6763
243.407
83.3178
277.028
78.5789
119.008
248.076
190.439
79.5926
263.277
270.191
83.2936
231.646
134.647
139.008
278.782
89.8272
174.886
82.8622
120.68
101.544
213.687
79.8009
141.194
65.937
64.6516
278.645
271.499
158.899
103.344
243.917
79.6699
300
67.5415
133.446
84.2382
78.4175
281.698
94.0986
183.032
84.5387
97.1148
123.379
122.804
59.9828
69.5316
63.3807
130.522
72.4863
142.646
282.6
276.548
106.969
286.826
85.5865
140.114
88.5862
269.434
80.6492
134.896
91.7781
70.9433
71.1527
84.0346
266.983
274.965
112.452
62.2429
272.671
82.9942
125.624
81.585
106.023
92.3564
59.7966
64.0387
67.1168
287.112
178.21
110.456
115.794
298.208
104.154
176.426
84.0004
82.5459
127.692
299.529
90.0972
70.1057
265.867
135.675
299.961
65.1494
260.23
258.799
173.229
97.8194
163.106
266.805
78.0273
143.921
282.1
83.681
285.945
275.765
84.4651
278.683
84.7276
269.517
102.092
125.202
84.4696
91.2319
118.164
207.166
258.86
114.932
71.5885
287.583
91.1522
90.3329
74.7728
83.0059
284.154
86.7243
234.357
265.185
100.513
115.311
96.0625
135.384
104.349
273.827
172.261
88.9237
272.958
134.484
128.426
223.01
86.5913
88.1306
188.909
261.664
271.988
92.8038
278.967
66.7426
102.562
144.47
253.5
97.4095
96.3411
138.993
140
87.9886
159.446
88.9008
72.0279
99.4058
134.805
272.999
61.7353
278.555
87.2957
64.6035
93.0994
62.0565
169.355
77.4634
100.68
174.461
85.962
86.9381
256.478
111.729
67.0664
253.334
115.846
103.414
128.944
174.693
282.131
298.37
93.6743
234.922
147.499
112.823
61.5686
94.2861
189.051
133.799
158.185
155.201
84.1631
75.8005
70.9938
198.708
75.1803
246.984
103.153
151.501
69.0413
266.586
130.666
86.471
74.5299
68.7088
90.3196
151.217
77.3011
258.9
76.9737
110.759
72.1452
67.8024
228.296
101.24
279.453
260.795
117.325
64.5534
87.1287
94.1173
60.6268
101.829
269.416
129.721
92.5736
129.852
273.886
61.9106
73.0982
288.465
101.191
65.6339
153.375
87.34
102.472
67.0732
132.101
264.559
147.509
275.866
63.7024
278.119
151.385
161.641
270.665
100.511
282.059
152.362
145.683
111.95
60.5668
80.5894
66.5205
138.095
197.796
297.448
274.078
109.722
203.319
71.6386
264.602
78.1713
98.0529
113.01
135.857
172.44
109.462
61.4058
102.372
86.6507
62.2569
64.7786
87.1578
118.91
107.259
146.012
159.872
102.653
109.157
256.775
92.3894
103.237
87.8058
109.463
270.758
180.751
87.5859
64.6321
148.047
98.1698
90.6931
272.603
199.827
98.3604
81.5731
101.105
289.938
276.765
85.5
101.013
97.8575
89.3681
101.043
66.8431
71.7692
280.962
91.7981
145.389
247.745
124.197
141.268
274.822
99.6148
263.213
139.018
69.8367
243.833
160.627
138.499
275.701
67.0509
278.055
280.177
269.453
74.3929
295.889
121.69
114.034
98.3159
87.9859
122.649
299.768
299.032
97.497
74.2252
98.9445
106.654
276.883
169.667
157.386
288.356
259.066
66.2965
147.335
277.273
252.102
89.6809
279.359
131.163
94.4288
89.5633
272.228
106.124
109.845
288.333
80.4559
118.678
277.655
177.251
108.345
286.431
69.6398
271.907
85.9235
140.185
139.737
151.741
98.1679
74.8685
98.3302
89.501
106.504
86.253
242.59
103.391
95.8197
261.39
67.2496
113.142
78.1908
128.832
155.813
92.1973
57.7126
158.923
136.145
103.765
146.384
95.1932
112.668
106.782
66.4704
61.5405
63.4488
285.362
125.025
139.359
144.304
246.322
213.723
293.48
104.832
169.269
99.1072
133.835
128.343
172.337
94.414
83.7863
259.196
225.784
64.0717
151.828
75.9648
277.469
233.592
72.2225
90.2894
163.987
153.829
292.823
137.934
92.8366
60.5659
81.0792
64.3789
221.186
75.6409
159.04
255.135
137.947
123.166
248.343
182.4
91.5873
131.185
124.248
266.831
296.961
100.508
256.615
296.394
299.596
225.819
266.343
86.5341
235.129
92.3014
139.876
75.8947
90.8621
149.298
123.877
100.204
70.5187
208.1
93.7543
99.2226
66.0849
250.435
209.476
95.0867
281.235
71.6789
270.788
298.427
299.676
73.672
141.922
193.137
88.9102
76.9301
101.124
277.723
131.512
273.372
265.169
60.0338
58.5064
71.331
60.8341
58.9216
170.007
62.8283
191.417
60.052
100.024
118.001
229.874
87.645
71.5133
226.653
107.231
114.147
101.82
131.099
152.708
248.52
124.474
148.935
89.8304
141.702
75.527
199.588
151.847
134.952
133.626
86.4434
132.712
263.322
114.004
125.183
166.067
155.54
79.8426
138.962
96.8424
66.7622
76.5147
232.363
287.549
81.8686
90.9497
67.5765
70.3028
69.7405
68.7125
67.38
252.127
263.104
239.68
261.349
193.291
244.991
86.9194
65.3484
105.395
102.098
110.584
64.4663
61.6739
116.15
244.068
69.1263
102.65
204.488
111.317
140.285
78.4532
106.626
65.8081
150.001
99.2813
75.2019
271.222
86.9025
152.462
131.326
62.7566
73.059
88.5883
251.636
286.848
273.566
78.9231
193.57
101.415
88.6226
98.0496
104.367
116.656
298.04
276.844
94.6696
85.471
263.086
252.418
68.4431
288.277
260.307
72.0754
108.945
279.875
262.948
120.411
95.0702
130.02
258.284
143.169
160.412
126.985
169.53
114.42
273.507
163.346
62.2426
272.223
95.5838
124.437
84.8742
168.555
76.5525
64.8108
113.042
118.728
132.734
98.6026
278.509
66.4579
266.341
266.702
70.3858
158.321
263.392
255.86
271.215
145.421
74.1304
104.478
108.217
105.301
73.6284
127.49
158.648
122.675
274.251
233.507
84.0063
79.4039
106.938
260.936
120.257
65.1473
61.7505
100.122
146.794
258.322
108.063
114.954
87.701
116.48
225.444
92.6297
159.145
82.1633
73.9864
276.316
266.875
88.5635
152.533
268.135
143.679
269.081
100.417
242.538
95.0919
272.575
149.004
142.46
297.989
216.552
289.717
94.4935
97.9861
108.758
68.1209
109.884
82.1496
118.598
68.3232
109.465
125.322
127.056
120.733
187.983
260.678
281.843
158.548
277.883
288.798
281.985
106.732
65.4726
176.58
270.562
94.0449
91.4646
82.0132
95.6025
75.0469
88.5332
96.0742
257.935
268.951
240.877
151.975
85.9875
79.8346
72.5022
280.246
217.059
110.792
85.8775
261.068
101.839
172.313
266.949
71.8744
75.1913
87.2137
76.6193
102.634
78.3865
149.224
74.6895
282.37
130.916
121.629
282.345
200.009
258.744
291.887
291.881
149.213
278.48
80.3973
201.722
269.186
67.098
196.12
267.066
208.618
216.178
134.198
196.686
98.9202
132.459
76.3923
65.9697
95.6822
74.6634
115.643
88.2618
69.5108
83.9146
154.602
78.3421
153.287
145.991
94.6227
74.7294
74.5303
73.5413
85.824
101.698
66.3006
89.093
74.3921
126.408
171.562
104.844
111.508
211.474
88.5574
102.832
282.681
280.497
136.719
103.421
148.864
118.256
236.768
81.5493
117.107
72.0584
176.655
96.9722
192.424
127.052
88.0263
143.51
131.821
109.028
70.7913
296.408
248.357
91.1487
138.559
109.637
141.09
277.463
127.481
263.203
156.176
143.249
85.3308
87.3827
61.1486
296.236
138.202
260.197
120.408
101.944
268.736
198.631
68.849
281.65
102.51
267.494
84.9178
73.2633
143.399
89.5981
269.431
61.0665
104.452
229.5
145.585
170.969
211.682
134.332
123.073
93.861
109.943
89.8682
107.934
153.642
250.026
244.746
298.982
275.877
69.4389
78.8678
88.8672
180.158
78.7208
214.467
79.9727
299.546
114.535
73.179
77.6854
153.325
83.4546
147.387
258.831
203.313
83.6992
242.177
275.021
87.4678
166.038
127.276
103.077
86.5933
168.295
70.1668
102.703
270.381
266.617
201.027
205.303
299.923
125.091
76.5119
73.9772
121.582
174.205
238.01
91.3404
105.727
90.3657
95.8566
151.361
276.973
89.7213
267.903
128.795
107.664
104.502
66.1799
85.1438
166.579
77.0209
131.774
267.762
150.865
88.4746
122.846
247.572
61.8351
61.7131
116.546
123.337
87.6428
135.366
144.806
75.3366
265.266
92.1884
299.93
67.3936
271.603
177.302
192.109
118.867
85.9134
267.135
171.775
263.059
69.0535
110.615
111.385
149.418
71.8031
127.612
105.457
95.958
269.571
263.213
132.191
74
78.9776
80.6213
109.121
266.005
64.0651
118.442
266.683
148.911
142.631
227.222
267.232
73.9592
278.363
139.815
280.684
137.384
80.4599
82.9761
130.451
260.236
78.8116
132.649
178.622
140.073
117.063
102.28
239.877
273.517
85.5461
98.3898
143.271
158.577
240.901
166.707
263.27
79.2153
66.7506
124.046
222.933
158.694
78.6213
299.995
82.4844
144.506
287.933
84.9468
190.23
225.262
114.853
73.3008
58.8499
58.4758
62.8014
204.327
61.1248
117.205
59.6577
115.916
61.4804
221.952
62.0931
59.807
71.5384
168.864
127.031
133.6
108.308
108.697
86.486
85.1519
72.7332
267.492
96.7722
299.906
298.853
153.082
265.526
81.0887
69.4548