/*--------------------------------*- C++ -*----------------------------------*\
  =========                 |
  \\      /  F ield         | OpenFOAM: The Open Source CFD Toolbox
   \\    /   O peration     | Website:  https://openfoam.org
    \\  /    A nd           | Version:  8
     \\/     M anipulation  |
\*---------------------------------------------------------------------------*/
FoamFile
{
    version     2.0;
    format      ascii;
    class       volVectorField;
    location    "4e-05";
    object      U;
}
// * * * * * * * * * * * * * * * * * * * * * * * * * * * * * * * * * * * * * //

dimensions      [0 1 -1 0 0 0 0];

internalField   nonuniform List<vector> 
23640
(
(-552.128 2466.11 0)
(117.931 2763.89 0)
(580.463 433.123 0)
(-17.2907 129.789 0)
(294.315 2652.53 0)
(-490.193 1969.24 0)
(-139.712 2778.48 0)
(-192.313 2405.33 0)
(-303.526 2563.06 0)
(2236.95 648.627 0)
(-34.3967 433.613 0)
(938.277 2526.65 0)
(285.461 2624.25 0)
(247.314 2672.16 0)
(-1337.24 1411.92 0)
(-426.189 1968.39 0)
(1013.89 2494.41 0)
(-109.439 1032.31 0)
(42.4372 729.904 0)
(-1400.86 2150.34 0)
(-85.4566 522.63 0)
(724.187 272.409 0)
(-82.484 536.084 0)
(142.837 516.876 0)
(-322.973 2583.55 0)
(296.412 2723.44 0)
(-101.296 2123.29 0)
(811.459 2355.54 0)
(1210.18 2443.47 0)
(412.458 2511.14 0)
(144.475 2678.61 0)
(-7.5027 9.06001 0)
(-89.5857 518.612 0)
(-1297.33 2256.53 0)
(-1804.12 1635.41 0)
(-1571.77 1157.98 0)
(982.333 2506.28 0)
(1067.09 2429.71 0)
(1521.61 941.623 0)
(93.8555 349.373 0)
(1400.8 2296.42 0)
(-280.517 2509.16 0)
(467.353 2622.72 0)
(-2004.46 1569.45 0)
(-10.7967 85.2118 0)
(919.781 1688.53 0)
(503.267 2641.53 0)
(742.693 2641.29 0)
(2204.34 634.995 0)
(-191.395 2382.18 0)
(3.58446 21.5919 0)
(-64.2982 1008.54 0)
(-1786.38 899.8 0)
(-646.864 2607.31 0)
(-15.2783 127.789 0)
(1069.19 266.804 0)
(-787.86 2042.01 0)
(-46.2139 2725.6 0)
(24.8444 2847.27 0)
(29.3503 93.0127 0)
(105.718 2668.66 0)
(-580.435 1892.55 0)
(39.8081 244.873 0)
(-59.5209 967.296 0)
(243.95 2836.08 0)
(-63.9503 973.694 0)
(-233.172 1928.24 0)
(-355.157 2586.32 0)
(156.498 1043.21 0)
(464.33 2618.52 0)
(74.834 275.074 0)
(-1256.45 2311.53 0)
(-145.097 711.86 0)
(-812.242 2527.74 0)
(411.482 1938.96 0)
(-9.50264 11.69 0)
(-312.086 49.9263 0)
(317.863 2620.84 0)
(42.4822 719.035 0)
(-36.2011 265.002 0)
(847.964 1639.22 0)
(1688.65 1510.74 0)
(55.0991 2843.46 0)
(58.2733 2838.13 0)
(223.398 2838.76 0)
(-1868.74 449.297 0)
(-67.9661 1016.82 0)
(110.176 377.921 0)
(-175.022 643.349 0)
(-1288.23 1453.78 0)
(-231.578 2814.1 0)
(-153.32 2687.93 0)
(-1925.47 1307.46 0)
(-121.481 707.79 0)
(20.3387 1035.22 0)
(46.1837 2598.02 0)
(-58.2455 940.664 0)
(1600.27 542.078 0)
(-85.6113 2388.9 0)
(-2015.24 1046.73 0)
(1994.22 1119.68 0)
(-649.041 2602.73 0)
(142.523 500.817 0)
(812.463 2577.03 0)
(1985.25 1558.14 0)
(1134.67 2399.56 0)
(43.3452 159.214 0)
(-770.126 2627.75 0)
(-552.134 2640.7 0)
(-48.6771 2456.05 0)
(275.281 2673.71 0)
(-139.962 707.914 0)
(221.631 2623.12 0)
(1439.4 2261.23 0)
(1553.34 1308.53 0)
(-1145.09 2463.8 0)
(-1380.21 1325.52 0)
(-394.395 2680.69 0)
(-627.105 2502.39 0)
(382.122 2462.7 0)
(133.768 451.67 0)
(5.0036 35.7289 0)
(1448.93 626.903 0)
(-0.9484 33.5662 0)
(992.167 2112.45 0)
(113.79 409.758 0)
(4.35561 19.3074 0)
(1801.3 1170.87 0)
(-508.36 2043.52 0)
(1369.79 2306.97 0)
(194.621 2398.32 0)
(1846.32 1494.87 0)
(206.64 2636.01 0)
(-669.885 2140.67 0)
(-914.876 2476.86 0)
(111.703 377.134 0)
(-69.7376 457.863 0)
(-333.63 2598.69 0)
(32.231 444.847 0)
(-63.8831 889.214 0)
(-83.1888 2407.82 0)
(-803.635 2036.34 0)
(-153.301 728.593 0)
(-29.7723 431.477 0)
(178.232 721.063 0)
(-131.365 2566.99 0)
(-50.4671 385.663 0)
(87.1331 349.271 0)
(-266.421 2806.4 0)
(195.47 965.647 0)
(-162.654 2354 0)
(508.023 1639.26 0)
(49.064 2833.36 0)
(-11.2331 196.723 0)
(1369.44 2024.4 0)
(-1187.18 2213.29 0)
(-128.685 2782.67 0)
(-507.505 2602.48 0)
(253.14 2025.29 0)
(-75.6045 2117.05 0)
(-1219.43 1384.68 0)
(-2007.54 634.343 0)
(-1577.15 1160.54 0)
(-194.561 2014.33 0)
(1163.44 2552.79 0)
(1319.57 2555.85 0)
(56.1452 209.129 0)
(-1356.25 1442.22 0)
(41.3481 157.827 0)
(1851.36 1483.92 0)
(746.605 2643.28 0)
(1689.6 1234.32 0)
(402.935 1983.12 0)
(-587.007 2632.2 0)
(46.063 204.923 0)
(-48.0984 203.401 0)
(1367.96 2298.53 0)
(1555.47 1174.39 0)
(-36.5742 260.464 0)
(-92.7617 2552.19 0)
(-8.77829 86.2436 0)
(1427.89 266.288 0)
(-334.924 2591.71 0)
(-887.213 2397.04 0)
(1176.46 2379.83 0)
(243.182 1483.29 0)
(-806.876 2236.68 0)
(-2022.09 1238.27 0)
(-32.39 101.083 0)
(-880.297 2387.34 0)
(-437.452 2268.8 0)
(56.6112 418.098 0)
(-6.78725 41.6723 0)
(47.0144 2835.25 0)
(898.303 2570.97 0)
(100.214 360.691 0)
(1985.54 1516.7 0)
(-896.372 1873.75 0)
(1560.07 484.675 0)
(1254.6 1738.19 0)
(-9.56728 590.575 0)
(2007.4 1333.27 0)
(1062.3 2417 0)
(-276.485 2532.99 0)
(-68.516 664.193 0)
(138.547 2825.41 0)
(1394.19 437 0)
(-86.6662 531.841 0)
(1805.24 1071.66 0)
(54.1296 208.052 0)
(228.732 2700.64 0)
(-381.731 2605.96 0)
(-50.2388 2535.41 0)
(174.187 2833.7 0)
(538.934 1519.42 0)
(-19.3839 2530.44 0)
(730.882 2610.25 0)
(-1379.96 2164.21 0)
(-182.228 2227.53 0)
(-2002.91 1552.78 0)
(-115.719 2541.57 0)
(48.5715 433.523 0)
(-15.518 587.003 0)
(964.745 2515.25 0)
(-140.218 530.267 0)
(149.971 2645.9 0)
(-372.771 2714.2 0)
(4.95976 34.0681 0)
(-2078.91 1543.99 0)
(-230.721 2817.08 0)
(-450.679 2512.99 0)
(-943.323 2576.41 0)
(1414.14 2142.93 0)
(-396.968 2607.73 0)
(-489.304 2606.66 0)
(1663.03 1554.54 0)
(74.9218 279.536 0)
(-21.4064 2552.73 0)
(-266.79 2807.19 0)
(1000.95 1487.91 0)
(1943.9 1171.75 0)
(-1500.94 1392.46 0)
(1409.92 2271.82 0)
(-267.455 2458.56 0)
(-15.9439 141.205 0)
(706.526 2612.32 0)
(103.863 2420.56 0)
(1582.29 396.706 0)
(-3.30569 256.618 0)
(126.027 445.759 0)
(28.179 89.061 0)
(831.711 2604.83 0)
(493.948 2617.27 0)
(46.7295 201.736 0)
(55.6264 2835.97 0)
(92.2049 346.505 0)
(-1182.81 549.368 0)
(-878.213 2618.48 0)
(-38.2645 142.82 0)
(-40.2576 146.95 0)
(-17.0128 101.043 0)
(618.234 2579.08 0)
(1924.45 1280.69 0)
(-467.111 2646.65 0)
(1406.94 2160.44 0)
(482.822 2616.76 0)
(506.529 2148.69 0)
(-121.143 2358.28 0)
(51.3786 2837.89 0)
(50.4222 1065.81 0)
(2164.09 964.143 0)
(1492.59 2285.56 0)
(128.249 435.648 0)
(-31.324 99.7613 0)
(1827.93 1120.98 0)
(-1191.7 2358.34 0)
(1196.83 2405.76 0)
(5.54915 35.7739 0)
(11.8967 962.914 0)
(-604.28 2630.98 0)
(114.32 401.577 0)
(1915.07 1974.04 0)
(294.626 1491.61 0)
(-23.6644 408.325 0)
(-380.608 2194.57 0)
(698.65 1833.51 0)
(-75.5368 2287.35 0)
(970.952 1669.43 0)
(-566.444 2710.55 0)
(-22.3963 414.359 0)
(-182.35 2556.32 0)
(-963.922 2481.42 0)
(-40.0654 2553.59 0)
(-204.542 2184.2 0)
(33.0568 451.219 0)
(195.116 2474.53 0)
(1304.26 2359.51 0)
(-777.724 2504.22 0)
(294.375 2700.27 0)
(845.443 2250.93 0)
(-1314.47 1444.42 0)
(-62.6502 947.097 0)
(4.10259 33.1398 0)
(-195.145 2614.84 0)
(-73.1327 477.867 0)
(1284.67 2375.32 0)
(1775.92 1579.59 0)
(-981.351 1855.39 0)
(-15.2508 111.951 0)
(-157.624 719.364 0)
(892.253 2588.78 0)
(1802.62 1192.37 0)
(-46.1937 204.065 0)
(90.1899 720.527 0)
(-33.7941 600.359 0)
(572.298 2134.79 0)
(-2026.81 1247.09 0)
(-672.168 426.208 0)
(20.6435 1014.72 0)
(-401.657 2113.2 0)
(664.346 2296.2 0)
(-1183.57 2373.61 0)
(-1831.26 1617.58 0)
(797.448 2387.91 0)
(-926.999 2507.52 0)
(-1956.03 1046.29 0)
(34.0104 109.759 0)
(-121.572 2508.61 0)
(504.389 2247.96 0)
(9.52942 13.8845 0)
(-329.865 1455.1 0)
(-208.991 2419.69 0)
(-908.234 2392.22 0)
(-585.784 2354.11 0)
(-190.454 2516.89 0)
(-195.108 2599.19 0)
(1408.69 316.709 0)
(2141.02 1007.43 0)
(192.399 2446.8 0)
(293.604 2700.98 0)
(-1567.36 374.694 0)
(-180.817 817.427 0)
(1345.3 2041.35 0)
(-4.78992 37.8403 0)
(80.7658 408.935 0)
(-94.4438 1064.8 0)
(-725.153 1920.78 0)
(861.164 2558.43 0)
(227.343 2642.58 0)
(1372.3 2183.88 0)
(-40.2049 148.968 0)
(-2006.22 981.895 0)
(-852.754 2574.04 0)
(-365.649 2686.96 0)
(-1832.96 1647.96 0)
(1221.55 2471.61 0)
(20.1278 2318.69 0)
(-857.161 2522.74 0)
(42.9581 244.779 0)
(44.9549 428.556 0)
(-737.383 2233.13 0)
(-57.3008 496.417 0)
(-69.7496 895.108 0)
(965.284 2276.85 0)
(-38.7312 2565.04 0)
(1987.36 2132.32 0)
(1515.15 2254.3 0)
(2201.57 866.804 0)
(23.3795 720.004 0)
(-377.132 2523.57 0)
(-1724.18 1123.01 0)
(198.303 730.965 0)
(894.311 2584.31 0)
(-33.4176 591.655 0)
(988.049 2119.12 0)
(-852.714 2561.02 0)
(28.5047 86.0865 0)
(-1673.46 1406.83 0)
(-111.042 2503.91 0)
(417.228 2173.77 0)
(140.715 722.155 0)
(199.877 744.96 0)
(-35.1616 2532.73 0)
(-173.915 829.321 0)
(-40.8342 2502.77 0)
(-1159.64 2547.89 0)
(-1977.02 1024.3 0)
(1303.03 2394.12 0)
(98.6711 362.301 0)
(-1487.59 2204.26 0)
(17.3646 1129.1 0)
(-690.496 1785.57 0)
(-536.393 95.8762 0)
(-1830.52 947.862 0)
(-1560.43 1724.98 0)
(122.985 456.959 0)
(-5.47897 38.8357 0)
(1133.75 2386.35 0)
(517.168 2603.67 0)
(-907.992 1878.52 0)
(-1036.29 1885.55 0)
(60.4459 205.599 0)
(806.212 1985.4 0)
(1400.36 2339.88 0)
(374.728 2601.46 0)
(-297.045 2766.73 0)
(30.6489 122.85 0)
(1128.51 2487.36 0)
(1752.57 1266.4 0)
(222.273 2092.54 0)
(-856.965 1886.07 0)
(-6.05678 259.42 0)
(-43.9141 176.593 0)
(-519.844 2446.72 0)
(-45.9306 383.831 0)
(1335.22 2328.12 0)
(759.091 1821.9 0)
(-100.122 2635.72 0)
(696.049 2263.22 0)
(1309.91 2249.46 0)
(-38.1482 145.051 0)
(26.6047 1113.3 0)
(397.033 2695.48 0)
(-843.832 1783.17 0)
(2167.65 732.378 0)
(-1277.13 2364.72 0)
(-3.05295 36.1525 0)
(1420.4 646.63 0)
(-59.9941 490.424 0)
(34.0404 2214.12 0)
(1181.41 2257.82 0)
(13.7174 73.1983 0)
(-57.1495 217.088 0)
(-90.5116 548.332 0)
(-19.0383 2359.19 0)
(77.4353 405.234 0)
(-1659.71 1177.13 0)
(1475.83 1340.89 0)
(1189.04 1419.01 0)
(30.8326 94.9759 0)
(-639.239 2346.55 0)
(47.9962 241.077 0)
(1523.28 1030.89 0)
(-2171.06 672.149 0)
(-230.969 1691.67 0)
(-237.703 2185.73 0)
(-823.02 1887.21 0)
(2142.5 994.357 0)
(18.1578 542.982 0)
(2203.11 863.471 0)
(-0.210291 0.603293 0)
(-270.49 2020.23 0)
(44.4795 198.509 0)
(-668.235 1898.55 0)
(-32.8201 1157.07 0)
(-1148.01 2620.33 0)
(-545.111 2727.89 0)
(1775.17 1570.86 0)
(-38.8272 139.604 0)
(2070.52 929.454 0)
(681.994 2263.15 0)
(-366.404 2197.61 0)
(749.663 2531.07 0)
(0.187769 0.119075 0)
(1708.18 1247.16 0)
(374.273 2467.35 0)
(-1706.43 1197.42 0)
(730.06 132.09 0)
(-2181.77 923.718 0)
(-458.508 2251.83 0)
(139.794 2439.67 0)
(-352.648 2538.29 0)
(-14.797 98.5652 0)
(1794.49 1602.37 0)
(854.002 1796.47 0)
(-706.249 1800.81 0)
(466.609 2659.2 0)
(4.70694 4.52576 0)
(1805.52 1185.15 0)
(4.12704 49.4279 0)
(-160.097 2290.03 0)
(-1350.39 2115.73 0)
(-225.152 2554.41 0)
(-2179.66 690.483 0)
(1154.17 1649.56 0)
(1897.73 1031.68 0)
(-119.392 525.235 0)
(1911.12 1400.27 0)
(-135.365 2674.15 0)
(-552.271 2602.68 0)
(360.512 2194.54 0)
(-6.26392 52.371 0)
(574.186 2548.68 0)
(121.594 453.795 0)
(-146.503 2531.81 0)
(-280.784 2725.78 0)
(-1945.01 1308.13 0)
(-398.879 1474.44 0)
(1785.58 1202.56 0)
(1003.28 2431.86 0)
(153.02 2589.11 0)
(-23.7404 306.545 0)
(-1278.12 2348.95 0)
(-162.103 2572.98 0)
(-53.7654 2576.93 0)
(37.8783 2840.9 0)
(-1610.05 1718.22 0)
(969.911 2513.49 0)
(-972.815 2454.34 0)
(453.927 2600.57 0)
(836.816 1720.86 0)
(679.646 2346.02 0)
(-2089.11 634.079 0)
(-1975.81 462.593 0)
(-94.9356 562.5 0)
(-566.771 2608.25 0)
(700.727 2548.18 0)
(955.407 2511.53 0)
(-266.997 2441.13 0)
(-32.4141 376.66 0)
(-866.038 1771.93 0)
(16.0186 1200.09 0)
(-0.0942254 0.286986 0)
(-1288.29 1237.4 0)
(-507.406 2732.83 0)
(270.766 2621.69 0)
(111.01 593.241 0)
(625.899 2333.49 0)
(135.976 715.302 0)
(40.9427 2848.33 0)
(-338.931 2708.2 0)
(-138.566 530.443 0)
(1703.9 1341.35 0)
(-657.303 1302.28 0)
(-1313.13 296.873 0)
(-126.019 2628.23 0)
(-1832.1 914.433 0)
(1956.88 1255.46 0)
(-781.34 2584.68 0)
(1010.81 2355.88 0)
(-97.7344 2051.24 0)
(-181.111 2569.16 0)
(-119.986 2519.96 0)
(398.977 2695.22 0)
(533.157 2589.01 0)
(476.569 2631.74 0)
(-1264.1 1281.38 0)
(174.071 689.917 0)
(449.653 2577.44 0)
(448.736 2581.93 0)
(1071.21 1454.71 0)
(-398.08 2607.98 0)
(-1062.75 216.864 0)
(-2017.91 1523.15 0)
(1252 1401.63 0)
(-545.637 2547.24 0)
(301.846 2620.78 0)
(-1431.25 1444.18 0)
(-65.4977 462.174 0)
(43.8106 205.827 0)
(-15.0189 1940.86 0)
(-88.2999 386.426 0)
(-167.822 2578.34 0)
(1270.6 1712.74 0)
(-64.9194 843.372 0)
(-85.4222 549.055 0)
(398.357 2072.78 0)
(68.8239 629.142 0)
(1369.02 1297.72 0)
(1962.85 963.512 0)
(0.484099 0.803718 0)
(301.703 2638.98 0)
(-148.488 2526.65 0)
(-1163.33 2326.82 0)
(-541.36 2626.03 0)
(29.869 723.061 0)
(1599.99 707.042 0)
(-1942.1 445.884 0)
(2106.94 1236.13 0)
(611.823 2573.29 0)
(11.3372 70.786 0)
(-18.8212 2485.12 0)
(-854.631 2522.94 0)
(654.967 2343.28 0)
(87.2307 711.142 0)
(168.404 620.026 0)
(6.55884 2134.36 0)
(2099.47 1228.26 0)
(336.954 2724.75 0)
(63.8499 624.893 0)
(-16.6639 252.146 0)
(341.99 2609.91 0)
(1409.06 2286.52 0)
(-260.73 2466.59 0)
(38.6046 2841.59 0)
(26.213 999.205 0)
(-1372.56 2199.72 0)
(-748.92 2114.62 0)
(-363.412 2535.55 0)
(-2163.42 886.364 0)
(-41.7637 388.22 0)
(17.834 535.661 0)
(-37.5162 138.279 0)
(1766.31 1268.26 0)
(-331.005 2550.71 0)
(2010.33 458.529 0)
(-1442.47 1756.97 0)
(751.418 2138.51 0)
(-510.892 2628.93 0)
(115.991 598.587 0)
(459.808 2433.58 0)
(-160.603 2346.17 0)
(800.652 2558.91 0)
(16.6089 2577.38 0)
(-591.949 1970.7 0)
(-1502.13 1761.95 0)
(-1430.92 498.373 0)
(-40.2918 2549.38 0)
(568.553 2606.8 0)
(-1.24143 35.2766 0)
(-64.8397 670.98 0)
(1305.87 2359.65 0)
(-564.529 2694.59 0)
(-16.2112 247.913 0)
(-451.229 2647.82 0)
(37.5257 1041.91 0)
(986.223 2555.39 0)
(-38.4782 578.28 0)
(-266.418 2579.28 0)
(1535.75 1033.99 0)
(1793.31 2130.29 0)
(157.975 2338.94 0)
(-1254.12 1621.77 0)
(-89.1381 2583.06 0)
(-2130.56 1755.09 0)
(-17.2664 112.032 0)
(46.0551 2597.92 0)
(1049 2557.44 0)
(1138.51 2376.9 0)
(1467.88 1342.36 0)
(-267.801 2485.37 0)
(1348.64 550.799 0)
(-90.0289 380.776 0)
(101.132 2650.38 0)
(1610.27 315.093 0)
(-16.6121 2483.47 0)
(-38.8912 586.89 0)
(-857.373 2088.27 0)
(-1123.08 2473.45 0)
(861.834 2556.67 0)
(-1850.34 1304.45 0)
(7.28516 38.0695 0)
(182.772 716.165 0)
(-200.436 2821.31 0)
(-1396.53 2174 0)
(-34.1865 104.789 0)
(1774.39 1190.74 0)
(-117.999 518.738 0)
(439.363 2571.39 0)
(-41.5713 1903.64 0)
(-202.765 2566.14 0)
(-1054.63 1697.12 0)
(-1148.84 2482.2 0)
(-1936.01 1021.36 0)
(252.58 106.289 0)
(-271.476 91.1857 0)
(486.07 2248.41 0)
(-8.26857 44.1661 0)
(175.795 676.518 0)
(-413.459 2172.23 0)
(5.28902 35.1163 0)
(9.69903 2488.21 0)
(-364.465 2697.56 0)
(-1510.16 1492.49 0)
(-5.79178 938.138 0)
(690.918 2584.48 0)
(-169.524 2623.41 0)
(382.035 2632.34 0)
(-475.854 2581.47 0)
(-23.3549 302.222 0)
(28.702 86.6041 0)
(-3.34236 2462.68 0)
(294.932 2631.14 0)
(1818.33 1290.51 0)
(-513.11 2608.14 0)
(-1049.02 2592.57 0)
(-27.3722 121.287 0)
(-1441.7 2206.29 0)
(912.226 1618.85 0)
(-4.49166 37.0259 0)
(1214.41 2436.98 0)
(1409.6 273.473 0)
(13.3311 1179.58 0)
(117.145 2782.54 0)
(29.899 1225.96 0)
(1131.17 2327.81 0)
(911.078 1713.14 0)
(1193.49 2156.68 0)
(112.941 432.887 0)
(148.726 2646.02 0)
(-0.648651 0.875642 0)
(-5.95413 955.758 0)
(1451.74 2149.84 0)
(134.714 483.23 0)
(1079.39 2432.22 0)
(-447.593 2677.67 0)
(97.3783 350.591 0)
(1848.17 1394.75 0)
(-82.6117 324.521 0)
(1497.89 1910.48 0)
(-120.574 696.68 0)
(107.829 391.596 0)
(1883.62 1021.85 0)
(-1901.16 1757.09 0)
(-733.591 276.561 0)
(-1519.96 1182.42 0)
(749.916 1863.22 0)
(-698.919 2706.86 0)
(-95.3707 555.044 0)
(1463.6 933.283 0)
(1945.04 1439.01 0)
(-695.744 1829.8 0)
(2154.51 991.557 0)
(1867.48 1745.66 0)
(-1186.74 2185.48 0)
(318.63 426.7 0)
(-1481.77 2222.3 0)
(770.125 2574.92 0)
(-1815.39 1807.09 0)
(-15.411 151.297 0)
(144.438 2555.04 0)
(-1028.91 2448.05 0)
(41.5115 298.937 0)
(-101.682 396.005 0)
(1394.1 2471.67 0)
(227.781 2642.85 0)
(584.708 334.325 0)
(1335.53 2296.23 0)
(37.5915 290.485 0)
(27.6133 2509.18 0)
(-29.2839 2102.17 0)
(-573.251 2576.44 0)
(35.5025 286.229 0)
(-1876.98 961.985 0)
(867.31 2593.27 0)
(241.657 1369.54 0)
(-915.96 2489.98 0)
(221.287 838.136 0)
(987.61 2530.28 0)
(-530.516 2501.68 0)
(142.679 1430.02 0)
(1503.94 2262.79 0)
(-361.325 2518.99 0)
(-566.868 2527.54 0)
(501.728 2629.5 0)
(4.65355 5.45459 0)
(185.494 2213.24 0)
(-694.285 2614.24 0)
(-59.3393 1043.55 0)
(83.8331 307.242 0)
(-540.767 2624.9 0)
(69.0689 2844.23 0)
(-31.955 1213.89 0)
(-33.2334 2496.74 0)
(-30.0355 129.711 0)
(1366.87 451.904 0)
(-28.2418 380.295 0)
(1037.29 2387.1 0)
(133.17 812.563 0)
(-1180.47 2180.2 0)
(1006.12 1721.03 0)
(564.27 2510.45 0)
(-1003.51 1699.69 0)
(371.193 2608.89 0)
(165.021 608.339 0)
(435.828 2570.25 0)
(-45.8464 177.413 0)
(22.6077 2460.01 0)
(-4.06492 1171.64 0)
(-1558.31 544.076 0)
(-2070.91 1237.33 0)
(1.5217 32.1532 0)
(885.704 567.045 0)
(-1630.35 553.093 0)
(1566.41 550.712 0)
(7.90633 56.5864 0)
(-887.885 2072.74 0)
(943.27 2507.29 0)
(-1014.54 2318.92 0)
(92.7163 2635.53 0)
(1905.38 1636.15 0)
(-1651.21 1134.46 0)
(177.088 756.339 0)
(-226.02 2579.84 0)
(1703.68 1696.89 0)
(115.757 445.827 0)
(-34.3942 1739.08 0)
(-48.9593 269.155 0)
(863.992 2472.52 0)
(-95.4511 345.992 0)
(-236.485 2379.72 0)
(-935.402 1973.5 0)
(-171.245 2534.66 0)
(275.031 2672.49 0)
(2198.9 895.516 0)
(34.0268 102.861 0)
(-695.139 2700.75 0)
(80.1179 710.277 0)
(-59.6129 338.328 0)
(-573.198 2513.49 0)
(-2034.69 670.471 0)
(147.765 549.719 0)
(-429.463 2610.93 0)
(31.6613 122.242 0)
(2024.87 499.11 0)
(603.898 2264.43 0)
(-279.814 2775.29 0)
(-214.048 746.149 0)
(-1264.5 1378.68 0)
(-623.836 2604.37 0)
(19.3155 2466.04 0)
(340.928 89.6669 0)
(179.507 607.084 0)
(758.452 2383.25 0)
(887.861 668.636 0)
(88.5853 342.626 0)
(344.585 2400.2 0)
(889.524 2494.27 0)
(2136.5 1018.24 0)
(28.1506 1203.9 0)
(-450.47 2566.46 0)
(190.854 2219.38 0)
(1137.15 2428.07 0)
(40.5336 940.577 0)
(347.602 2616.03 0)
(209.247 2542.72 0)
(534.476 2001.39 0)
(-183.437 1676.4 0)
(-1491.08 1204.33 0)
(-493.612 2564.38 0)
(53.1242 935.755 0)
(-482.834 2193.32 0)
(-3.00839 474.343 0)
(430.85 2483.99 0)
(1361.94 2410.07 0)
(-1114.97 2575.85 0)
(-11.8978 193.229 0)
(-454.469 2571.81 0)
(86.8136 314.786 0)
(349.521 2639.74 0)
(-52.9122 2557.43 0)
(-94.1618 2652.56 0)
(-1485.35 1455.18 0)
(203.071 2403.24 0)
(-22.9254 765.918 0)
(0.379934 1.03173 0)
(160.158 2342.82 0)
(-1710.5 1531.63 0)
(-258.118 2409.43 0)
(-1961.8 1199.53 0)
(1513.35 2073.57 0)
(584.369 2539.94 0)
(-424.03 2506.25 0)
(46.5865 157.879 0)
(-483.024 1919.03 0)
(408.874 2593.94 0)
(-1.65679 481.003 0)
(-1077.26 2390.9 0)
(-10.1942 65.3618 0)
(1490.3 1162.27 0)
(-1882.66 1088.75 0)
(-83.1335 319.614 0)
(47.917 248.954 0)
(-56.8922 470.382 0)
(0.71922 1.05674 0)
(-1200.55 2333.75 0)
(33.965 109.935 0)
(-950.703 1423.02 0)
(938.765 2563.69 0)
(-1506.11 2202.11 0)
(-2078.91 1265.5 0)
(-137.968 2610.21 0)
(58.9286 941.879 0)
(118.175 2675.16 0)
(-1870.18 973.251 0)
(699.685 2141.24 0)
(-39.006 267.462 0)
(395.425 2389.04 0)
(-27.4424 124.033 0)
(-105.698 2316.08 0)
(1225.99 581.99 0)
(-562.271 2233.62 0)
(-835.902 2565.86 0)
(-1522.39 754.912 0)
(-93.6634 319.299 0)
(1384.43 2043.36 0)
(1229.24 262.858 0)
(-49.8913 2080.82 0)
(-2258.52 1334.39 0)
(146.338 552.974 0)
(-28.2974 605.077 0)
(1331.37 472.163 0)
(467.84 2620.75 0)
(118.423 2675.22 0)
(-5.26624 1192.6 0)
(763.907 578.899 0)
(1661.45 1690.46 0)
(-57.523 1899.57 0)
(-246.722 2344.15 0)
(-1281.57 2350.15 0)
(-1664.74 1267.35 0)
(-1507.41 2203.66 0)
(2202.51 687.521 0)
(-1724.25 1627.33 0)
(33.5737 107.478 0)
(252.696 2573.1 0)
(410.851 1841.97 0)
(-42.3755 167.159 0)
(-69.7186 640.468 0)
(42.5413 327.72 0)
(-666.599 1562.79 0)
(-181.104 803.936 0)
(358.688 2590.99 0)
(96.5899 352.338 0)
(1298.83 2376.04 0)
(1715.15 1077.77 0)
(959.35 2509.34 0)
(4.02901 2469.73 0)
(-2053.57 684.808 0)
(0.592985 18.0799 0)
(45.2666 947.953 0)
(-127.28 711.655 0)
(-533.507 438.044 0)
(-1805.92 1818.11 0)
(-14.8502 94.8017 0)
(1571.5 1653.42 0)
(-1397.68 1240.56 0)
(274.497 2547.59 0)
(41.76 2462.99 0)
(19.626 284.304 0)
(-1744.94 436.147 0)
(1606.46 2202.86 0)
(2067.64 617.874 0)
(-600.781 1880.36 0)
(39.7867 324.269 0)
(955.476 1925.59 0)
(-77.1076 328.804 0)
(-47.2465 1153.05 0)
(871.926 2621.23 0)
(746.734 2512.92 0)
(1319.72 2348.9 0)
(47.7554 437.782 0)
(-1254.24 2336.9 0)
(-1378.71 1044.06 0)
(-263.97 2804 0)
(-138.483 2608.11 0)
(47.2613 172.584 0)
(1385.5 556.429 0)
(781.745 2662.31 0)
(-887.285 2541.52 0)
(-1826.66 1662.01 0)
(-180.559 2820.37 0)
(-79.6993 660.435 0)
(479.73 2253.47 0)
(-858.093 2561.58 0)
(-30.3998 1931.65 0)
(904.17 2582.11 0)
(-33.1453 101.755 0)
(86.4346 2846.65 0)
(441.779 2712.01 0)
(22.8704 530.01 0)
(617.043 2534.99 0)
(53.7446 423.222 0)
(109.557 2499.53 0)
(1773.14 721.06 0)
(455.595 2601.98 0)
(-1668.25 2039.1 0)
(-1438.89 1085.19 0)
(526.874 2545.15 0)
(60.4335 274.302 0)
(-1340.91 444.228 0)
(54.7534 2824.64 0)
(-563.069 2632.36 0)
(946.105 2564.31 0)
(295.974 2723.09 0)
(139.276 703.087 0)
(2097.32 1288.65 0)
(607.65 2483.58 0)
(-104.675 407.688 0)
(-30.9995 735.595 0)
(-522.602 2400.42 0)
(-28.6654 130.643 0)
(213.583 2515.77 0)
(-1653.4 2045.91 0)
(82.2609 312.962 0)
(-52.4977 2494.4 0)
(32.8089 97.9832 0)
(24.9083 2847.2 0)
(-91.1882 2470.72 0)
(909.746 1801.2 0)
(707.576 2087.61 0)
(431.955 2315.49 0)
(2.18674 1156.81 0)
(-865.76 2389.28 0)
(-1228.92 1351.61 0)
(-657.864 1894.33 0)
(-1764.99 1315.77 0)
(-843.623 2569.71 0)
(-1153.78 308.486 0)
(-622.769 290.459 0)
(1549.49 2138.22 0)
(-105.072 2571.53 0)
(1071.57 2425.18 0)
(-167.994 2777.18 0)
(123.41 458.508 0)
(813.027 1967.51 0)
(-102.438 2271.69 0)
(-336.552 2765.7 0)
(-1343.41 2246.48 0)
(396.312 91.1853 0)
(78.4644 700.367 0)
(12.4253 46.9846 0)
(2012.08 2123.14 0)
(113.46 424.994 0)
(979.272 2257.57 0)
(1567.9 2375.66 0)
(-489.058 2744.59 0)
(-36.5223 140.834 0)
(-214.48 794.108 0)
(717.852 2652.29 0)
(-71.1912 819.038 0)
(1359.22 2055.75 0)
(142.905 2343.24 0)
(1313.89 2235.71 0)
(1121.31 2402.91 0)
(317.331 2485.7 0)
(-77.4759 2640.83 0)
(-1281.48 1513.57 0)
(41.422 2513.92 0)
(-491.113 2565.67 0)
(-415.723 2457.76 0)
(-74.9292 333.619 0)
(170.43 566.866 0)
(-292.512 2771.24 0)
(1069.49 2427.01 0)
(1175.59 1619.67 0)
(1026.6 2349.32 0)
(737.949 1789.3 0)
(-9.61471 62.3434 0)
(-1803.99 1658.07 0)
(132.838 2804.11 0)
(792.578 2584.54 0)
(14.9395 77.0028 0)
(-117.974 429.279 0)
(135.764 696.085 0)
(-419.102 2512.8 0)
(-62.166 1051.3 0)
(287.665 2486.08 0)
(-411.71 119.985 0)
(563.771 2518.96 0)
(-368.208 2153.81 0)
(-146.221 548.613 0)
(973.558 2214.71 0)
(-9.15725 247.178 0)
(-127.077 2733.29 0)
(562.077 2172.88 0)
(-2007.25 1548.57 0)
(911.47 1956.91 0)
(-346.456 1497.81 0)
(-666.105 1565.28 0)
(-57.6511 219.686 0)
(-1559.31 2047.16 0)
(-2182.55 648.407 0)
(-853.564 1394.25 0)
(1036.86 1422.6 0)
(191.643 2449.22 0)
(-524.816 2205.25 0)
(16.0447 2690.47 0)
(-273.3 2785.01 0)
(117.314 436.287 0)
(-522.363 2570.04 0)
(-1809.51 990.427 0)
(-1977.63 1464.65 0)
(376.476 1676.67 0)
(587.815 214.411 0)
(-1378.57 1343.01 0)
(-2151.6 925.431 0)
(26.9247 692.724 0)
(60.7919 209.273 0)
(-1560.07 2180.61 0)
(845.218 2374.28 0)
(320.485 2552.76 0)
(161.358 2621.74 0)
(1322.87 1874.37 0)
(1538.77 1268.39 0)
(-51.2583 2607.42 0)
(-495.81 2563.97 0)
(-589.874 2583.01 0)
(1328.84 1082.63 0)
(507.451 2713.65 0)
(-87.4417 2464.87 0)
(-1812.58 1571.99 0)
(1527.06 821.116 0)
(-16.319 160.288 0)
(1057.96 2450.27 0)
(170.889 2557.55 0)
(-92.2942 495.884 0)
(1145 2244.91 0)
(45.2337 2481.5 0)
(675.691 1743.46 0)
(179.234 743.465 0)
(-134.049 2336.16 0)
(339.896 2641.19 0)
(339.686 2639.45 0)
(268.407 2460.46 0)
(-143.295 2569.22 0)
(1199.26 1713.85 0)
(159.889 1461.96 0)
(-1268.14 320.047 0)
(544.846 2376.73 0)
(54.7734 203.237 0)
(469.579 2598.36 0)
(682.178 2256.48 0)
(-1102.33 2411.22 0)
(694.144 2585.36 0)
(2.60854 30.5312 0)
(20.1037 2575.63 0)
(1033.18 2398.34 0)
(21.1292 2575.08 0)
(-5.67995 80.0183 0)
(-125.351 687.509 0)
(-1917.81 579.128 0)
(-1867.6 579.146 0)
(45.5706 195.382 0)
(0.23552 0.554882 0)
(-823.158 2579.18 0)
(1821.96 1518.85 0)
(80.092 2446.81 0)
(1134.84 241.738 0)
(-1261.26 2262.86 0)
(6.14263 954.783 0)
(1854.39 460.869 0)
(1260.96 2492.88 0)
(54.2892 412.982 0)
(-74.4863 2268.42 0)
(-1803.96 1059.55 0)
(-17.6525 162.601 0)
(-35.6671 120.833 0)
(1185.81 2150.74 0)
(-413.941 1744.21 0)
(-946.121 1961.65 0)
(-1079.91 2392.66 0)
(19.6167 2602.1 0)
(-138.091 2285.05 0)
(-1276 2298.76 0)
(844.876 2593.17 0)
(-420.302 1514.92 0)
(-196.361 705.27 0)
(202.809 2410.18 0)
(-69.8782 482.889 0)
(-1503.84 2189.98 0)
(2164.25 559.273 0)
(123.636 953.298 0)
(1047.71 2407.25 0)
(-2056.18 976.8 0)
(-1577.67 1882.58 0)
(138.76 801.223 0)
(-176.007 652.642 0)
(-255.906 2562.35 0)
(92.3379 1907.96 0)
(-404.254 2242.96 0)
(-2007.93 520.598 0)
(-1737.57 1637.97 0)
(-1281.01 321.309 0)
(-2157.16 629.192 0)
(2172.05 853.41 0)
(-40.7734 2579.25 0)
(-123.308 677.174 0)
(-511.748 2367.13 0)
(-378.639 2586.46 0)
(-719.729 2423.26 0)
(79.3879 729.279 0)
(-71.0183 649.005 0)
(1075.2 2539.29 0)
(1106.41 2390.83 0)
(-78.4971 610.055 0)
(1024.67 1412.32 0)
(-1195.44 2442.5 0)
(-133.827 476.717 0)
(317.972 2584.3 0)
(-174.458 849.04 0)
(508.059 2469.11 0)
(-186.693 1945.52 0)
(87.669 2432.83 0)
(518.197 2635.36 0)
(-843.531 2611.28 0)
(980.422 2439.67 0)
(0.38443 0.564808 0)
(37.5161 2232.47 0)
(-36.9308 385.717 0)
(-366.173 2702.85 0)
(-422.689 2220.04 0)
(-36.8286 379.338 0)
(-315.429 2651.31 0)
(849.513 2592.45 0)
(554.23 2369.61 0)
(-2139.18 571.987 0)
(-115.84 425.088 0)
(-1451.58 329.016 0)
(47.4462 407.73 0)
(1374.31 2363.58 0)
(-370.135 2647.39 0)
(171.775 2561.64 0)
(717.426 2605.63 0)
(-637.301 2310.91 0)
(864.096 2597.23 0)
(-109.864 2681.26 0)
(61.4178 1446.5 0)
(608.604 2486.27 0)
(-1826.48 1438.72 0)
(-213.77 2764.77 0)
(-1992.36 570.124 0)
(424.287 2509.67 0)
(-40.6674 1114.12 0)
(46.8008 448.85 0)
(-1468.74 2251.4 0)
(17.8668 280.524 0)
(264.317 1388.06 0)
(-12.911 91.9956 0)
(-1572.56 1895.55 0)
(1425.64 1216.63 0)
(-65.5652 2791.78 0)
(-70.8943 805.222 0)
(432.048 2435.65 0)
(-369.717 351.843 0)
(508.968 2713.96 0)
(-1190.45 2474.55 0)
(-604.776 2606.36 0)
(-2131.01 1382.87 0)
(133.332 2557.91 0)
(-590.896 2632 0)
(1933.25 1451.41 0)
(422.688 2060.63 0)
(42.2136 154.876 0)
(-617.413 1430.86 0)
(-1915.53 1762.93 0)
(-130.216 2562.44 0)
(141.349 991.086 0)
(161.225 2258.34 0)
(-948.449 268.39 0)
(-0.732113 11.6376 0)
(-1465.36 905.631 0)
(1533.48 2006.58 0)
(-752.049 2591.37 0)
(2087.8 538.088 0)
(66.9748 2358.23 0)
(378.658 2650.66 0)
(682.963 2154.87 0)
(772.188 2499.89 0)
(600.175 2277.63 0)
(-22.4158 372.671 0)
(-408.016 2206.08 0)
(177.446 837.167 0)
(94.9778 1916.64 0)
(1713.04 1631.93 0)
(-187.682 2570.54 0)
(199.682 2712.02 0)
(857.632 199.984 0)
(-1247.7 2375.11 0)
(-183.952 2556.26 0)
(76.5624 263.109 0)
(-1920.95 1201.29 0)
(-639.743 322.079 0)
(-563.68 509.054 0)
(-116.824 2554.48 0)
(-62.1479 324.434 0)
(322.366 1658.17 0)
(39.5639 376.954 0)
(371.257 2497.32 0)
(129.345 2586.63 0)
(-543.711 988.525 0)
(49.3017 1080.09 0)
(-1527.2 2203.03 0)
(-14.2322 487.938 0)
(1185.25 1277.15 0)
(-100.376 2635.07 0)
(593.304 2596.06 0)
(26.438 2674.69 0)
(643.262 353.175 0)
(-487.33 2379.05 0)
(1361.49 2320.28 0)
(1111.49 1554.8 0)
(-2177.45 649.127 0)
(428.483 2514.76 0)
(-1571.13 385.588 0)
(-398.504 2236.34 0)
(68.9302 740.662 0)
(51.8521 2832.56 0)
(-1028.56 2431.86 0)
(-55.8854 2556.04 0)
(-814.688 2633.65 0)
(595.193 2590.9 0)
(1529.23 864.38 0)
(247.458 2671.59 0)
(-775.346 2519.86 0)
(278.862 2509.54 0)
(0.163292 0.2784 0)
(-2174.54 862.476 0)
(-344.285 2159.23 0)
(-1819.79 1680.02 0)
(76.3458 737.828 0)
(42.5525 447.325 0)
(-63.3209 340.089 0)
(319.213 2485.3 0)
(2260.92 608.158 0)
(136.625 2422.27 0)
(-21.3397 592.366 0)
(591.533 2716.4 0)
(-341.488 2703.33 0)
(-642.691 2580.01 0)
(1745.22 1856.52 0)
(-1596.16 2035.89 0)
(-990.584 2523.18 0)
(1496.85 1981.2 0)
(1237.25 2595.87 0)
(985.852 1899.72 0)
(-1207.89 2291.92 0)
(88.8064 351.81 0)
(-1201.35 1374.49 0)
(1260.87 2092.48 0)
(433.264 2648.78 0)
(-1101.61 2514.81 0)
(-195.369 2255.97 0)
(1414.38 2284.64 0)
(-43.5375 165.376 0)
(321.968 2487.56 0)
(1261.41 1588.67 0)
(-1121.59 2487.58 0)
(-43.1814 259.274 0)
(49.6312 237.819 0)
(-972.228 2492.02 0)
(1690.54 2164.29 0)
(-22.6003 2613.21 0)
(1776.52 1589.02 0)
(1127.76 2414.98 0)
(-2016.75 1405.09 0)
(-1687.55 1711.35 0)
(-11.1151 483.354 0)
(2158.53 709.466 0)
(-41.9572 207.09 0)
(1892.83 433.433 0)
(-1271.1 2339.18 0)
(-494.405 2632.24 0)
(1862.77 1565.9 0)
(1337.9 2247.36 0)
(8.30733 9.8287 0)
(-74.9061 273.539 0)
(-697.731 1341.8 0)
(-1602.35 1324.08 0)
(-1778.06 1462.61 0)
(-1418.31 522.438 0)
(165.262 706.936 0)
(-30.03 2657.45 0)
(246.586 2761.52 0)
(1738.48 1975.99 0)
(1475.73 1233.52 0)
(2.33953 5.63116 0)
(-418.513 2551.84 0)
(-27.7518 146.423 0)
(857.002 2505.33 0)
(991.763 2553.35 0)
(1199.46 2349.97 0)
(31.1753 2476.61 0)
(1095.46 2452.91 0)
(995.878 2283.19 0)
(2118.42 532.876 0)
(62.9997 734.962 0)
(-69.883 269.864 0)
(-945.79 247.715 0)
(-1441.2 2091.19 0)
(-73.6761 2489.96 0)
(132.184 2347.83 0)
(-50.1901 2702.82 0)
(-774.543 1831.58 0)
(2203.5 832.162 0)
(-1470.38 1278.67 0)
(1751.86 1906.65 0)
(890.583 1973.53 0)
(-19.845 344.534 0)
(577.329 2019.03 0)
(176.668 2717.12 0)
(-1202.31 2389.39 0)
(-468.904 1937.91 0)
(-1910.31 1024.7 0)
(1658.83 1217.53 0)
(780.289 2626.68 0)
(1034.7 2237.64 0)
(-230.917 2078.51 0)
(618.145 2518.31 0)
(847.72 1662.95 0)
(942.444 2335.83 0)
(1357.83 2195.44 0)
(135.64 1757.99 0)
(-161.823 593.115 0)
(-205.601 887.789 0)
(165.615 632.161 0)
(1457.2 2223.43 0)
(35.8344 375.064 0)
(25.545 1045.16 0)
(1267.76 1448.51 0)
(-23.2659 2475.15 0)
(964.594 2568.95 0)
(-1717.75 800.236 0)
(1846.37 2104.78 0)
(-96.6913 340.916 0)
(863.278 2537.85 0)
(1023.46 2406.8 0)
(-689.978 2665.27 0)
(1858.44 1593.94 0)
(441.095 2630.77 0)
(49.273 412.998 0)
(-790.101 2495.65 0)
(1323.33 1723.49 0)
(-40.767 209.58 0)
(314.712 2100.47 0)
(122.199 1803.88 0)
(874.959 1816.06 0)
(1659.81 1928.4 0)
(-264.185 2024.3 0)
(-1080.61 2226.96 0)
(-513.817 2576.83 0)
(-181.481 2714.65 0)
(-812.6 2527.18 0)
(2008.75 545.136 0)
(-520.526 2615.09 0)
(837.285 200.374 0)
(-1352.48 608.429 0)
(-556.484 2631.15 0)
(-75.2139 634.082 0)
(-1272.48 2467.24 0)
(-83.8204 2214.18 0)
(158.938 2632.01 0)
(1703.66 1443.83 0)
(-188.719 1761.31 0)
(666.291 2061.27 0)