/*--------------------------------*- C++ -*----------------------------------*\
  =========                 |
  \\      /  F ield         | OpenFOAM: The Open Source CFD Toolbox
   \\    /   O peration     | Website:  https://openfoam.org
    \\  /    A nd           | Version:  8
     \\/     M anipulation  |
\*---------------------------------------------------------------------------*/
FoamFile
{
    version     2.0;
    format      ascii;
    class       volScalarField;
    location    "5e-05";
    object      alphat;
}
// * * * * * * * * * * * * * * * * * * * * * * * * * * * * * * * * * * * * * //

dimensions      [1 -1 -1 0 0 0 0];

internalField   nonuniform List<scalar> 
23640
(
8.7194e-07
4.6027e-06
1.7786e-09
0.00436241
8.06731e-06
6.75183e-06
4.61187e-06
6.46927e-06
2.53361e-05
3.81385e-06
0.0015076
1.07305e-05
4.37253e-06
5.8292e-06
5.86482e-06
4.12566e-06
3.09643e-07
0.000620677
0.00143512
2.47413e-05
0.00101059
6.58722e-10
0.00107178
0.000120551
9.37852e-06
7.09869e-06
0.000225697
4.17527e-05
1.70172e-07
5.41286e-06
3.09172e-06
0.047467
0.000946061
1.57377e-05
1.63189e-05
4.85671e-06
3.42311e-07
1.1301e-06
1.7708e-08
0.00019829
1.11461e-05
2.54802e-05
7.77471e-06
1.88042e-08
0.00911751
0.000179813
8.6414e-07
6.48653e-06
3.83558e-06
5.86906e-06
0.197557
0.00112263
4.06742e-06
5.32911e-07
0.00461343
1.80495e-07
1.62152e-05
9.24237e-06
2.05759e-06
0.00395347
2.97395e-06
0.00025541
0.00161821
0.00124602
2.45929e-06
0.00121253
5.30393e-06
8.90587e-06
8.2177e-05
8.01498e-06
0.000209008
1.51906e-05
0.000646417
3.81375e-07
6.95393e-06
0.0126023
1.40545e-09
4.23248e-06
0.00143768
0.00167519
0.000207373
3.62019e-05
2.34877e-06
2.37999e-06
2.36143e-06
1.15508e-06
0.00108119
1.41275e-05
0.000139482
5.76659e-06
2.8777e-06
1.05792e-05
1.12444e-05
0.00090453
0.00131505
7.45296e-06
0.00128743
7.1068e-07
1.38736e-05
8.25289e-06
1.385e-05
5.21056e-07
4.79619e-05
4.22121e-07
1.16911e-05
9.94837e-07
0.000531881
3.2728e-07
1.28702e-05
1.55909e-05
2.52056e-06
0.000692869
1.81139e-05
1.06051e-05
7.72797e-06
1.68993e-07
5.59075e-06
2.2579e-06
7.22187e-07
6.2587e-06
8.07801e-06
0.0416018
9.55926e-07
0.0465855
8.10347e-05
0.000109386
0.265993
2.29555e-05
6.83624e-06
9.80384e-06
6.75762e-05
2.29306e-05
4.41318e-06
0.000131041
6.33194e-07
9.47436e-06
0.00112245
9.42241e-06
0.00152117
0.00130882
1.50298e-05
1.62208e-05
0.00058369
0.00154432
0.000289207
1.20577e-05
0.0013403
0.000369539
2.99569e-06
7.87629e-05
5.33994e-06
4.57508e-06
2.49848e-06
0.00282771
4.22337e-05
6.16674e-07
4.62325e-06
1.79911e-05
5.37451e-06
0.000222302
5.09928e-06
2.90951e-06
4.81384e-06
3.47173e-06
1.52211e-07
1.11349e-07
0.000364679
7.31039e-05
0.000640794
2.25861e-05
6.35076e-06
7.38877e-06
6.88832e-06
1.21144e-05
0.00112409
0.000925676
9.6849e-06
1.28744e-05
0.00168001
4.34733e-06
0.00913571
4.87876e-08
9.34709e-06
3.48545e-05
1.80313e-07
0.000594322
9.09152e-05
1.08801e-05
0.00254852
3.74169e-05
2.66314e-05
0.00127757
0.0306893
2.48044e-06
2.87309e-07
0.000109089
1.17215e-05
8.36822e-06
2.78547e-08
9.23044e-05
0.00152125
1.33966e-08
1.31604e-06
2.50169e-05
0.00130033
2.41763e-06
1.92232e-08
0.00101038
1.15881e-05
0.000462885
7.11855e-06
8.67598e-06
2.63716e-06
2.3876e-06
4.07274e-06
1.43608e-05
7.64991e-06
2.41906e-05
7.01162e-06
2.29436e-08
3.00353e-06
0.00138782
0.00151397
1.11634e-05
0.00016303
1.71305e-05
8.21501e-06
0.0422228
2.09361e-08
2.87168e-06
1.06982e-06
2.50798e-07
2.09103e-05
8.44358e-06
1.75983e-05
3.7239e-05
0.000227012
1.4139e-05
3.00675e-06
0.00011708
1.62073e-05
2.0113e-06
1.16019e-05
2.44762e-05
0.00399896
3.99672e-07
2.51577e-06
5.39621e-07
0.00225008
9.07791e-05
0.00466071
7.46958e-06
8.53118e-07
0.00106752
2.13133e-06
0.000205007
3.77733e-09
2.98544e-07
0.0010718
0.000747618
0.00637642
2.31134e-06
1.75579e-05
1.2558e-05
1.17981e-07
7.65702e-06
0.000149444
1.2492e-05
2.12532e-06
0.0010536
7.64289e-06
8.71274e-08
5.02236e-06
0.00301163
1.94648e-05
1.70786e-05
1.81168e-07
0.0402845
0.00140365
1.17672e-05
9.69978e-05
7.95525e-08
0.000540022
0.0016101
1.43022e-05
0.000234428
8.15828e-06
7.04623e-06
5.12908e-06
0.00160626
1.0619e-05
3.01287e-07
1.3694e-05
5.96707e-06
0.00151287
1.05335e-05
9.8958e-06
4.11775e-07
8.61108e-06
4.48665e-07
7.63302e-05
0.0012591
0.0482121
1.16966e-05
0.00110033
1.06544e-07
2.74344e-05
0.00014464
0.00563171
0.000516052
2.61911e-07
2.37304e-05
0.00113899
0.0011995
0.00146035
0.000142524
1.06149e-05
1.89987e-09
0.00133777
8.60373e-06
7.96161e-07
1.63998e-05
1.61864e-05
4.02352e-05
6.05512e-07
1.91551e-05
0.000101035
1.09474e-05
1.0497e-06
0.125389
0.000495157
6.7479e-06
3.45944e-05
5.98284e-05
1.42205e-05
1.16517e-05
2.6817e-08
8.1585e-06
1.01395e-05
8.5474e-06
5.39106e-07
0.000391248
4.11985e-05
0.0360426
0.000844937
0.000596758
0.000200042
1.04458e-05
1.60901e-05
2.22098e-05
0.00074092
1.61373e-05
2.87168e-07
2.18691e-06
1.61177e-05
1.23996e-07
3.06096e-06
1.75939e-06
0.001476
0.00141547
8.73848e-05
0.00130119
0.00127932
3.66947e-07
1.35127e-05
3.52084e-08
6.06261e-08
6.6053e-06
0.00148314
5.34752e-06
2.65785e-05
3.6952e-05
2.5539e-07
0.00146216
7.87453e-05
2.80626e-07
0.00299593
1.72123e-08
1.11165e-05
0.000155932
0.000737163
3.96971e-05
1.40968e-05
0.000469386
1.65762e-05
5.83632e-07
7.59956e-06
9.36819e-08
0.000144616
6.65663e-08
0.00105988
5.82518e-06
1.55815e-08
4.32397e-06
1.81053e-05
0.000180962
0.0355451
1.15101e-06
8.05878e-07
0.000158992
2.09203e-07
8.5928e-05
1.63651e-05
9.43232e-08
4.28216e-06
7.77012e-06
0.00251487
1.92443e-07
6.22609e-06
5.72946e-06
8.59816e-06
0.00222045
0.000975649
3.06612e-05
0.00140907
1.06811e-05
0.000217153
5.31517e-06
2.78528e-05
2.09593e-05
0.00111194
0.00103782
8.36417e-06
8.22899e-06
5.28286e-06
1.05692e-07
0.0387068
1.36697e-06
0.00127879
4.55304e-06
1.90516e-07
0.0109336
0.00042774
0.000984591
9.57897e-05
0.000883973
3.08133e-05
4.20089e-06
6.64378e-05
0.00188886
6.06312e-05
0.00124444
2.04903e-06
5.9921e-06
0.000510785
7.28895e-06
0.00018041
7.26392e-06
0.0015254
6.60043e-06
45.024
5.6221e-06
0.00117962
6.21824e-06
0.000382878
6.73071e-07
4.62428e-06
2.73997e-05
0.00062821
5.16494e-06
2.80219e-05
1.42862e-05
1.72578e-05
4.6181
5.70632e-06
6.35439e-06
6.21953e-06
5.0477e-08
1.07211e-05
2.66075e-05
6.29258e-05
8.24062e-06
0.0068889
2.39765e-08
5.86795e-07
0.000240959
6.33765e-06
0.972136
2.32603e-05
0.00768289
9.34223e-06
1.24005e-07
3.32235e-05
6.03398e-06
5.7381e-06
8.80396e-06
0.00050104
2.63456e-08
3.27566e-06
7.32133e-07
0.00015296
0.00456312
3.50817e-06
8.29321e-05
1.09677e-05
7.70624e-06
1.11499e-05
0.000420926
9.07174e-06
1.70715e-06
7.21444e-06
0.00181526
1.05842e-07
1.20923e-05
8.7307e-06
2.12975e-06
1.75289e-05
2.18969e-07
2.90748e-07
4.37206e-06
0.000209792
7.94368e-07
3.60411e-06
1.63873e-06
0.000954951
1.40055e-05
1.66527e-05
2.57871e-07
2.39771e-05
0.00157708
7.93009e-06
0.000946611
70.4395
4.86945e-06
5.49911e-06
1.83897e-05
0.000831669
2.88911e-05
0.000762934
1.99224e-06
8.61807e-06
0.000189921
3.43231e-05
2.89255e-06
6.66348e-07
5.5183e-06
4.12623e-06
1.64168e-05
3.25756e-07
2.08503e-05
2.9617e-06
8.58474e-06
1.13285e-05
8.31674e-06
5.98714e-07
7.14323e-06
4.79238e-06
0.000253338
8.56035e-06
8.59978e-06
8.89202e-05
8.40958e-06
3.31003e-07
2.3146e-08
6.35936e-05
5.11496e-06
1.0776e-05
1.52702e-06
0.00118126
0.00130296
2.9335e-06
0.000559302
1.21647e-05
9.29632e-05
0.00132921
0.00105033
7.47846e-06
0.00129231
2.22085e-05
3.93845e-06
29.6472
6.69386e-06
1.08663e-05
8.58019e-07
2.05519e-06
0.00146959
1.40441e-06
1.2914e-06
1.03162e-05
6.56892e-07
0.0119053
2.07682e-05
1.75057e-06
2.97461e-05
0.00121222
0.00012593
3.80731e-06
1.0199e-05
6.73721e-06
0.00131779
0.00216753
1.02346e-05
1.03775e-05
2.27676e-05
2.1134e-06
0.00134549
2.40424e-05
0.000127629
8.31512e-06
1.0128e-05
0.0014615
0.00153003
0.000968887
2.73152e-05
4.90578e-06
3.26009e-07
1.77075e-05
6.06049e-07
1.4905e-05
0.000798081
6.35565e-06
5.38024e-06
1.12604e-05
6.50467e-06
7.22223e-06
1.84822e-05
1.2111e-06
1.39163e-05
5.4203e-07
0.0392236
0.00132303
9.90744e-06
1.48776e-05
0.00220214
7.47538e-06
0.00123493
6.65272e-06
0.00144194
7.33916e-06
2.06822e-06
4.805e-08
1.01369e-05
7.59021e-08
4.3332e-06
2.7362e-08
0.00540397
7.42395e-06
6.97912e-06
1.13166e-06
4.24605e-06
2.31622e-05
8.3685e-07
0.000505863
4.31763e-06
7.15823e-08
2.08432e-05
0.00144011
0.000113303
5.21945e-07
1.04791e-05
9.32322e-06
0.0319084
0.000213233
2.73368e-06
2.39281e-05
0.00132254
9.51852e-06
0.000501449
4.55996e-06
3.35646e-06
3.19862e-05
0.000143042
1.78297e-07
1.90064e-05
2.37041e-11
1.26664e-11
1.11403e-06
0.0239216
0.000214898
8.97529e-06
0.0412371
1.41452e-05
8.29686e-06
1.00865e-05
0.00142353
4.84855e-07
5.64719e-06
8.90942e-06
7.93262e-07
0.00183401
0.00435674
2.38818e-05
1.09757e-05
3.58003e-08
1.76516e-05
4.20831e-07
0.00339565
1.21776e-05
0.000180066
0.0389345
1.53407e-07
2.67766e-08
0.000253905
4.46742e-06
0.000894882
2.34945e-07
8.01226e-06
1.59554e-05
0.000232918
1.72199e-05
0.0126469
0.00141129
1.71785e-05
8.00102e-05
9.74902e-07
1.8774e-05
0.000112794
1.25269e-05
0.000352881
2.32631e-05
0.000901166
0.000107266
1.08454e-05
3.82356e-08
3.13315e-10
4.03323e-06
9.30159e-06
5.16798e-06
0.000938094
1.77221e-06
1.65218e-05
0.000235092
8.02108e-06
5.75043e-08
4.14612e-05
3.91072e-10
1.02915e-07
3.63496e-07
1.19161e-05
0.00368586
1.6746e-05
1.48326e-06
0.00152705
0.000291628
5.67857e-07
1.59921e-05
5.25915e-08
1.09225e-05
0.00162889
2.08652e-05
3.83523e-06
1.67571e-05
0.00167456
1.60873e-05
3.32892e-07
0.000461057
1.68797e-06
3.68238e-05
2.10618e-07
5.32985e-06
0.000741624
6.06507e-08
1.10474e-05
4.89181e-06
8.58426e-06
1.01788
0.000153159
3.78135e-07
0.00105783
0.000165002
2.02738e-06
2.04725e-06
0.000355023
1.65975e-05
0.00266264
4.81895e-07
0.0016109
2.12977e-05
0.000889108
4.11934e-05
7.59212e-06
2.6064e-05
0.000157303
1.81708e-05
0.00011633
4.56182e-06
0.000767825
2.23189e-05
0.00110615
9.81496e-08
1.07814e-05
0.0487648
3.78435e-09
1.10872e-07
9.24015e-07
0.00412236
0.000110058
2.11437e-07
3.21765e-05
1.83704e-05
2.67772e-08
5.46716e-06
0.000368999
7.61549e-06
6.39249e-08
0.000253157
6.69027e-07
0.00126317
4.30649e-07
0.000171353
2.01885e-05
1.44086e-05
1.08222e-05
2.48988e-06
7.27185e-06
0.00142758
5.20293e-06
0.00125818
0.00110728
4.7632e-06
3.62369e-06
0.000142726
7.99311e-06
0.00223228
7.03644e-07
2.73223e-05
4.14776e-06
1.97831e-06
5.86775e-06
1.2827e-05
2.32328e-05
2.18666e-09
2.58382e-06
4.43043e-05
2.18423e-07
0.000312824
6.94572e-05
1.82682e-06
8.26948e-06
0.000366841
5.48287e-06
0.000152406
1.08626e-06
0.00136174
1.74792e-05
1.53952e-05
8.06359e-06
0.000545094
1.32814e-08
4.67677e-06
0.00132065
2.18324e-05
0.00159504
1.72669e-05
5.41644e-07
5.43384e-07
0.00287163
5.51094e-06
0.000142235
8.22208e-06
4.60922e-06
4.32636e-06
9.27051e-06
1.9848e-06
0.00147136
32.355
1.01914e-05
2.86927e-05
2.07046e-05
1.87695e-05
2.31002e-05
8.89315e-07
7.46157e-06
3.45716e-05
0.000277383
4.03129e-06
0.00158907
1.23493e-06
0.0138483
2.88167e-06
2.27737e-05
0.000322578
0.00126371
0.001291
0.414996
1.65831e-07
9.7629e-05
9.56822e-05
5.95539e-07
6.2829e-08
1.05755e-05
3.18819e-06
0.00129222
3.26172e-06
1.64238e-05
2.25825e-05
0.00159973
6.61825e-05
0.0032842
2.73474e-06
3.85156e-09
0.000133555
1.26727e-05
2.41778e-06
1.67016e-05
3.83231e-05
7.54781e-08
3.04982e-06
1.1064e-08
0.000187737
0.00147803
2.58733e-08
7.0674e-06
3.24955e-06
0.000441847
4.3693e-09
3.70026e-05
2.55034e-06
1.79209e-05
5.82223e-07
3.91508e-05
6.38058e-08
4.23765e-06
2.34123e-05
0.000331439
7.25562e-06
0.000339279
0.000998288
0.00127756
0.00149853
2.94885e-06
0.000373367
5.708e-06
0.00013816
1.06807e-07
3.4509e-06
2.62842e-07
2.20839e-05
3.77856e-06
0.00259612
0.00133843
0.000858579
1.35155e-09
1.19467e-05
0.00732992
4.58037e-05
4.26997e-06
4.33043e-06
1.39274e-05
0.00196066
1.22296e-06
5.30022e-08
4.89324e-07
6.16585e-06
0.00154204
2.31908e-05
0.000569609
0.000320484
2.84554e-07
2.13297e-06
9.81939e-06
0.00139544
7.29344e-07
3.38335e-06
3.4619e-06
3.23831e-06
0.000426023
6.79217e-09
5.54969e-06
2.67049e-07
1.28063e-05
2.74204e-06
0.00122328
1.03478e-06
1.21713e-05
2.96537e-06
6.5136e-06
0.00174397
2.08305e-06
6.67996e-06
0.00152067
8.02477e-07
0.00131603
1.82295e-05
1.87923e-06
4.46749e-06
1.09244e-05
3.41156e-06
1.60391e-05
0.000849195
1.08868e-06
2.87554e-06
1.30379e-05
6.74801e-06
7.18054e-06
0.000712556
1.56856e-08
4.45973e-06
0.000277434
0.00146161
1.01546e-06
0.00288188
1.11049e-05
1.10571e-05
0.000301502
1.84081e-05
0.00202693
2.10226e-06
1.7447e-05
8.22077e-06
1.98612e-05
1.2222e-06
0.00109334
3.80451e-05
5.01383e-06
0.000230168
3.14017e-05
2.82591e-07
9.20779e-08
1.56254e-07
8.30364e-08
9.03499e-06
1.2792e-06
4.43088e-06
9.69491e-05
1.61494e-05
3.90731e-06
4.43484e-06
1.84946e-05
4.46551e-09
0.0012644
0.0196905
3.34502e-08
0.000188781
4.64368e-05
1.62673e-07
4.66523e-06
0.00129459
2.42075e-05
6.86945e-06
0.00130821
3.83263e-05
6.3129e-06
2.11658e-05
1.07921e-06
1.02265e-05
5.02746e-06
6.46663e-06
1.43522e-05
8.95496e-07
1.39526e-06
0.000655646
1.30742e-06
4.24116e-06
9.90315e-07
0.000114661
2.08069e-05
0.000236529
0.0150059
1.40953e-05
3.85183e-06
1.01632e-05
0.00993774
0.000134832
0.000735242
7.3853e-06
0.00100976
9.64085e-06
2.25025e-08
2.57532e-05
9.66591e-06
0.000149406
3.27113e-07
0.00229314
7.44868e-06
9.13955e-07
1.97984e-08
0.000140099
0.000503223
3.01434e-06
0.000423466
5.21693e-08
5.415e-06
7.1171e-05
5.28575e-05
1.02003e-05
0.0001289
3.01291e-06
3.51972e-06
0.000209913
3.97875e-06
4.44221e-06
1.22814e-05
0.000440111
1.89367e-08
5.63877e-06
1.06361e-05
0.00147885
0.00011027
9.84933e-06
3.81265e-05
1.03691e-05
3.26497e-06
2.46243e-05
1.21758e-05
3.72184e-06
4.62619e-06
6.07334e-07
2.39063e-06
5.54076e-06
1.74677e-05
2.23553e-08
9.39054e-09
0.00337404
2.18915e-07
1.65388e-05
0.000846818
2.58198e-07
1.82996e-05
0.000266756
0.00032162
1.1073e-05
3.18012e-06
3.22337e-06
9.61658e-06
1.22821e-05
0.000108333
0.000710085
2.43532e-08
6.30299e-05
0.000373984
4.08571e-06
7.63903e-07
1.76219e-07
4.82153e-07
0.0597615
8.87285e-06
2.06307e-05
8.85185e-06
0.0104338
0.000837606
2.2354e-06
2.24429e-06
0.00107321
0.0355386
2.9832e-07
4.19415e-08
1.09267e-05
1.4891e-08
1.47263e-07
0.00141344
7.0487e-07
2.66525e-07
0.00130168
8.11657e-06
2.21389e-05
0.00325527
0.000665623
1.6361e-07
0.000391751
1.43104e-05
1.25516e-06
5.21914e-06
3.9363e-06
1.60942e-05
3.17869e-07
0.00043914
1.64917e-06
6.67541e-05
0.00114522
1.26287e-05
1.10884e-06
0.000839263
1.406e-06
1.48001e-05
3.05955e-05
0.000839767
0.000141357
3.06383e-05
0.000370893
2.2743e-05
2.23595e-06
2.32535e-05
6.60848e-07
4.02819e-06
5.57268e-06
8.46473e-06
0.000840546
3.0489e-05
8.58499e-06
6.16313e-07
0.00126791
0.0012742
1.93672e-07
2.76008e-07
0.00119148
6.01963e-05
1.09385e-07
0.00010674
3.33414e-06
0.000469309
6.51891e-06
3.25742e-06
1.10486e-05
8.16734e-06
7.59208e-06
2.64737e-07
35.3379
4.85898e-06
0.00151899
6.84355e-06
2.53749e-05
0.0015258
1.45697e-05
2.90783e-07
6.39524e-05
3.13608e-06
0.00013464
7.33314e-07
0.00139303
8.58236e-08
1.4144e-05
1.6211e-05
8.18631e-06
8.35115e-07
7.06612e-06
3.19368e-06
0.000818344
4.4413e-06
1.95159e-08
5.05701e-06
2.43488e-06
7.85862e-06
0.000833938
0.00140277
1.01875e-05
0.0019954
0.000466211
0.00789955
3.01992e-05
2.71581e-06
3.24517e-06
0.00131349
7.0239e-06
4.54488e-10
5.52688e-06
8.4338e-06
1.97911e-06
1.56761e-08
1.27799e-05
1.22211e-05
1.65802e-05
6.44019e-06
0.00044623
3.31444e-06
3.68308e-08
1.20459e-05
0.000533738
7.6901e-06
4.48876e-08
0.000347196
3.36259e-06
2.45333e-05
3.20425e-07
7.46501e-07
8.82686e-05
2.42827e-06
8.65368e-07
2.18734e-06
2.66238e-05
0.00166882
1.30519e-05
0.000456891
0.000377357
3.21238e-05
8.7405e-06
8.54674e-06
6.77891e-10
1.49282e-07
1.04464e-05
4.88184e-05
1.42184e-08
7.98612e-08
1.61832e-09
1.16326e-05
0.000994574
0.000476775
0.0015058
1.96976e-05
7.46907e-06
2.82987e-06
0.00098751
9.91482e-06
0.00156534
3.58739e-06
5.3005e-06
6.61847e-07
3.51384e-06
1.58477e-07
3.03156e-05
1.04859e-05
5.8341e-06
5.40544e-06
7.75437e-06
1.02261e-06
0.000129372
0.00132978
2.47119e-06
1.16857e-06
1.34994e-05
7.39075e-06
2.22003e-06
4.92649e-08
2.95851e-06
2.06251e-06
5.10173e-06
63.3502
9.424e-06
9.87317e-06
1.60878e-05
0.00128626
0.00144152
0.00102422
1.005e-05
1.76849e-06
6.40678e-05
0.00149876
4.40318e-06
7.01522e-06
6.03229e-07
1.80534e-05
8.46933e-08
5.46252e-07
3.08428e-05
1.59665e-07
1.86087e-05
1.57006e-07
0.000342589
1.49605e-05
3.84223e-05
8.78931e-06
8.59837e-06
1.04658e-05
1.0058e-05
0.000798777
1.00913e-05
9.29159e-05
8.32333e-06
0.0014538
0.00114869
2.1151e-07
5.34805e-08
6.50343e-06
2.32343e-08
1.137e-06
1.13306e-05
2.71256e-05
0.0015754
5.23708e-06
0.00144665
2.27134e-07
1.63124e-05
2.31372e-06
1.91158e-05
2.02167e-05
0.259681
0.000197719
2.78463e-06
4.39702e-05
2.53258e-05
1.33921e-06
0.000401023
4.19445e-06
5.50931e-06
1.25204e-05
1.95408e-08
0.031952
7.00286e-06
0.00277723
1.82243e-06
4.30419e-07
1.66209e-07
2.28338e-05
1.11651e-05
3.48536e-05
1.03304e-06
0.00135286
0.000401131
1.84803e-10
1.0527e-07
1.73774e-05
9.83737e-06
2.52829e-06
0.000212017
5.93522e-06
4.28491e-05
1.86998e-05
0.000136037
0.00174502
0.000198124
8.90448e-06
8.44448e-07
5.91227e-06
6.2172e-06
2.9523e-05
6.86805e-06
4.51586e-05
0.000239552
2.4174e-05
0.000204346
2.79825e-05
1.24058e-07
2.34559e-06
0.000134248
3.93471e-05
0.000182795
8.77156e-08
0.00154962
0.00128504
4.36023e-06
2.22125e-05
2.12812e-07
2.8917e-06
8.41399e-08
8.20108e-05
1.1709e-05
1.09974e-06
7.01777e-06
1.98991e-05
8.55788e-06
0.0013716
2.37541e-05
8.34637e-05
0.00150766
5.61058e-06
2.1882e-06
8.22331e-06
2.13373e-05
5.30211e-06
4.32513e-05
4.00434e-06
8.88807e-06
1.90111e-06
1.18584e-06
9.0089e-07
2.79114e-10
2.1783e-06
6.02203e-07
0.00123602
9.25486e-08
6.94319e-06
5.94852e-06
1.18551e-05
1.99831e-06
7.62872e-07
2.15519e-08
2.30299e-08
7.5063e-06
0.00141625
2.30393e-07
3.92486e-06
0.00160173
4.33897e-06
1.85432e-05
2.65543e-06
2.416e-05
0.00115365
1.25144e-07
0.00842164
0.00123531
7.18177e-06
2.12832e-09
5.86066
3.46608e-06
1.15766e-05
1.98988e-05
0.000704493
8.16068e-06
5.15999e-06
4.37085e-05
2.25725e-05
8.96403e-06
1.68542e-06
2.90338e-05
0.00282207
0.000338061
8.76363e-06
0.00108091
0.000107821
1.54897e-08
1.12208e-05
0.000541482
0.00172849
0.00178027
4.07402e-06
5.56316e-06
0.0002875
7.78287e-06
6.16045e-06
7.73807e-06
0.00010303
0.00110804
6.04287e-07
2.01015e-06
5.3985e-06
7.40485e-06
0.00138706
7.02358e-06
3.2864e-06
2.31174e-05
0.00050982
3.26029e-05
1.02278e-05
0.00252134
0.010829
0.00119778
0.00385353
1.2048e-07
4.34632e-05
0.000152681
0.0001052
1.65072e-05
2.42459e-05
4.67529e-06
5.90842e-06
0.00140487
1.13859e-08
3.87163e-05
0.00147581
4.49685e-06
0.0038644
0.000912173
0.00088613
43.0264
1.48085e-06
3.33155e-06
1.62741e-05
1.79871e-05
0.000385515
0.000126163
1.79293e-07
2.7681e-08
1.31083e-05
1.75476e-05
9.12177e-06
2.10446e-05
1.08647e-05
0.00149903
3.00303e-06
9.0454e-06
1.19485e-05
6.2601e-08
1.25889e-05
0.00166229
4.0449e-06
1.22894e-06
0.000296655
0.000136958
7.11385e-06
4.98812e-06
9.08063e-06
1.33849e-05
5.41257e-06
1.04582e-06
3.26114e-05
1.70424e-06
0.000763386
0.247868
0.00257514
5.34967e-06
1.74019e-06
2.07342e-06
0.000111792
2.09167e-06
2.50547e-05
1.59313e-05
4.38709e-05
6.16119e-06
0.000462254
0.00127529
1.00051e-05
9.38531e-06
7.12517e-07
2.50712e-09
0.000663605
1.89073e-05
1.1846e-05
17.85
7.02011e-06
7.34559e-06
8.21246e-06
0.00277264
9.13857e-06
9.37632e-06
0.0012792
4.52147e-06
0.000210663
2.17528e-06
0.000100078
5.09635e-05
0.00320982
1.38086e-05
2.96418e-05
7.1418e-06
4.00137e-06
0.00136687
3.3636e-06
4.16841e-06
5.44092e-06
0.000103878
1.13935e-05
0.00190324
0.000105462
0.000868896
1.99523e-05
5.44133e-06
3.31805e-06
1.90323e-05
0.000204077
1.29524e-07
6.28461e-06
0.0254359
0.00127539
9.95014e-07
0.000240881
4.73556e-07
2.91316e-05
3.77447e-06
0.000544661
2.17186e-06
2.19704e-07
0.00185472
0.0015982
3.0138e-06
1.14446e-05
0.00226703
7.11084e-08
3.68199e-05
1.7174e-05
9.056e-06
2.89492e-05
1.46722e-07
4.27525e-06
1.84664e-05
0.000721503
8.63111e-06
9.4224e-05
0.00150306
8.28654e-05
2.05101e-08
1.27418e-05
5.89988e-06
2.31118e-05
0.00929998
4.76379e-05
0.000508517
0.016887
2.22732e-05
9.98948e-06
6.36538e-06
0.00299131
7.29403e-07
6.23113e-06
7.78417e-06
1.37272e-05
0.00234137
1.89458e-07
2.0711e-05
2.87655e-06
6.54528e-05
0.0007223
1.52655e-05
0.00132021
2.41133e-07
4.88836e-06
0.000561327
0.000827223
3.44858e-05
0.0274885
1.58248e-07
1.23034e-08
8.01765e-07
0.000199093
2.97271e-05
6.58787e-07
3.32839e-05
2.1916e-06
0.0225267
6.66001e-07
3.32147e-07
3.19276e-06
1.517e-07
0.000330472
0.000305787
5.31912e-06
0.00101244
9.55195e-06
8.15142e-06
0.000338849
8.02923e-06
0.000128932
1.8959e-05
2.03103e-05
4.06348e-06
2.16977e-05
4.51237e-08
0.000236877
7.46459e-06
1.51476e-07
8.66416e-05
1.09178e-05
3.62369e-06
3.96858e-06
1.08759e-07
0.00189523
1.67557e-06
0.00195719
9.44846e-06
7.11577e-06
2.49839e-05
0.000447448
0.00123704
2.31437e-05
0.00105328
0.0013111
2.69126e-05
2.64102e-05
19.1817
0.000147452
1.65706e-08
1.03968e-05
0.00104352
9.56759e-05
6.95033e-06
0.00237376
0.000925084
0.000596259
0.00162488
2.73424e-07
2.56568e-08
2.7957e-07
1.17507e-05
1.64604e-07
8.84327e-05
0.00151829
1.23965e-06
0.00152762
3.56902e-07
1.82223e-07
3.18414e-06
0.00129675
0.000824764
2.29748e-05
8.55176e-06
0.0012934
4.88546e-06
6.75571e-07
1.08179e-05
2.69632e-07
0.0436276
6.3655e-06
0.000661147
0.000208383
2.12256e-05
0.000339424
2.49727e-05
1.50297e-06
8.73574e-06
3.14104
1.32476e-05
0.000776968
1.49482e-05
1.02357e-06
5.36958e-06
0.00447647
0.00357224
9.31424e-08
1.03897e-05
0.00138394
4.34773e-06
7.02609e-05
0.000169606
0.0011355
0.000157425
1.11402e-05
6.77895e-08
0.00125674
0.000424601
0.00161223
6.2406e-06
0.00297438
2.19566e-05
3.62761e-06
3.97904e-09
3.56015e-06
0.000132166
0.00135537
3.31901e-05
0.00105542
8.65829e-06
5.66191e-06
7.5751e-06
0.000224528
5.97345e-06
3.83571e-06
9.75678e-06
2.32194e-05
3.44926e-06
0.0014181
3.13587e-06
8.9983e-06
0.000186006
5.61828e-06
2.76081e-05
0.000648332
7.33443e-05
2.96462e-05
3.60749e-06
9.09739e-06
1.43262e-05
1.56056e-06
2.49658e-07
9.21649e-06
0.0214198
1.50107e-07
1.99785e-07
2.63861e-05
4.39376e-06
1.80142e-05
1.93929e-05
0.0011556
0.000206247
1.28431e-05
7.62905e-07
6.73047e-08
0.0160051
1.28263e-05
4.38421e-06
9.08687e-06
0.00146252
3.96926e-06
0.00153964
0.00135629
5.08891e-08
0.00142504
0.000461826
8.975e-07
6.93309e-06
0.000294204
2.07096e-05
6.12914e-06
5.21287e-08
6.48613e-08
1.71438e-08
2.47867e-08
2.04505e-08
1.27525e-08
6.37334e-08
3.84852e-08
5.1122e-08
2.43346e-05
0.000131159
1.26986e-06
1.82206e-07
0.00140898
9.61119e-07
26.2777
2.33444e-06
1.75129e-07
1.41111e-05
4.93103e-08
0.00146118
8.59705e-07
1.81247e-05
1.67493e-06
2.46361e-05
2.22118e-05
3.20995e-07
0.000114237
1.02756e-05
2.1671e-05
4.82665e-06
1.3815e-05
0.000122693
1.91217e-05
2.34218e-05
8.31921e-09
1.41368e-06
8.65285e-06
0.000282378
1.47966e-05
2.23804e-05
0.00184283
5.93497e-06
7.63433e-06
5.00535e-06
3.33205e-08
2.64124e-07
4.73609e-06
9.99034e-06
2.51932e-06
1.07064e-06
0.00100109
5.12694e-07
0.00647814
1.3177e-05
0.000263199
0.000450008
5.00916e-06
0.00603553
8.54746e-05
1.05104e-05
1.49558e-08
7.89079e-05
3.79755e-07
0.00123741
0.00189771
4.76268e-06
5.71909e-06
3.38408e-06
3.18001e-06
0.00571873
2.33635e-05
9.1023e-06
1.18621e-05
0.000399564
1.42348e-05
1.82915e-07
0.000174699
2.01277e-06
8.13269e-06
2.11793e-05
5.7295e-07
4.52165e-05
9.66988e-06
8.87109e-06
4.73756e-05
1.93186e-05
4.60268e-06
0.00115077
1.06362e-05
0.00173554
0.00600223
0.00143572
0.00160574
1.00167e-05
1.14097e-07
1.7684e-05
0.000802096
3.1038e-06
3.4925e-06
7.49183e-06
6.08104e-06
0.000300885
2.74682e-08
2.67693e-07
1.76435e-05
0.00136829
0.000235294
5.97086e-06
0.001245
2.41541
3.51082e-06
9.39039e-05
0.00068971
0.000452849
0.00120844
2.1618e-07
0.00602263
1.33595e-05
1.18932e-05
0.00138633
0.00305029
3.91689e-06
2.88292e-06
2.56994e-06
6.90907e-12
1.82361e-05
3.47629e-05
4.19352e-07
2.31148e-06
2.30403e-08
0.000390568
1.09623e-06
1.31579e-05
8.19987e-05
4.47363e-06
4.3431e-06
3.07412e-06
2.03145e-05
0.00133698
2.59009e-05
1.07326e-06
1.22056e-05
4.81122e-06
2.17543e-05
5.2235e-05
4.52104e-06
0.0014183
2.56693e-06
1.34865e-05
4.56519e-06
1.17801e-06
1.18094e-06
5.48931e-05
9.48065e-06
0.00134976
1.66937
5.36387e-06
0.000628817
7.06837e-06
2.80147e-05
2.89381e-06
1.52623e-06
1.10279e-05
2.24601e-06
0.000710984
1.1237e-05
0.000309242
1.12905e-05
2.05561e-05
1.44576e-05
1.22499e-05
0.00167292
6.87383e-06
1.23777e-05
5.18205e-07
1.71304e-06
0.000128436
1.74398e-07
2.37231e-06
1.46415e-06
2.56816e-05
2.37346e-05
6.37811e-06
0.000363218
1.60348e-05
7.61659e-06
0.000227297
0.00286395
9.5489e-06
1.95467e-05
0.000202381
9.99809e-05
0.000155949
0.0016605
0.00149335
0.000915257
3.20967e-08
1.73637e-05
1.53902e-11
0.00159149
6.04256e-07
1.6267e-05
2.09541e-05
7.93076e-05
3.30143e-05
0.00051929
1.07856e-05
2.00407e-05
0.000328935
4.09208e-05
0.00147378
3.26302e-05
0.00038524
0.00124207
1.60544e-06
9.84743e-06
4.43843e-06
8.72468e-05
4.43606e-07
7.09297e-07
1.97722e-06
3.10881e-06
1.62335e-05
3.79581e-05
1.53154e-06
1.36722e-06
9.88338e-06
1.8224e-05
8.95789e-08
7.89361e-07
9.22894e-06
9.41949e-06
0.000591591
7.86371e-05
3.53305e-05
2.74547e-06
0.000895586
0.000463993
2.37115e-05
0.00127835
2.37653e-05
1.36006e-05
0.00146172
0.00274752
0.0761569
3.69331e-06
0.000157958
0.000573427
1.51386e-05
0.000899793
0.00120678
1.27255e-05
1.04658e-06
1.7971e-06
3.20616e-06
2.05282e-07
1.62161e-05
1.456e-07
2.58122e-07
0.00455411
0.00343917
9.38061e-06
0.00165513
2.18117e-05
5.75139e-06
0.000241846
5.69349e-06
4.2082e-05
0.00257526
1.66752e-05
2.3921e-05
3.4549e-06
3.62774e-06
0.0277504
1.17067e-05
0.000278206
5.98112e-05
8.22106e-06
8.76802e-07
3.49645e-07
1.72297e-05
0.00131355
3.37292e-06
1.70295e-05
0.718935
1.15455e-08
0.000551993
5.96864e-06
0.000800036
5.10928e-06
0.000322024
6.09147e-05
1.44621e-05
3.24232e-06
1.35898e-05
1.18965e-05
0.00141065
4.23361e-06
3.21416e-06
3.383e-05
1.09461e-05
0.000337498
7.77598e-06
1.13352e-05
6.29359e-07
3.44497e-07
0.00171598
0.00127926
2.71716e-05
1.72642e-05
1.73816e-05
1.48564e-05
1.89046e-05
4.22404e-06
0.00077964
2.42016e-07
9.79916e-06
0.000985349
1.1328e-05
0.0170857
2.36242e-05
1.341e-05
7.15674e-08
0.00242106
1.03335e-05
3.73708e-06
2.96321e-06
6.91467e-08
2.39272e-05
6.06333e-06
1.8027e-05
3.27938e-05
2.15201e-06
3.11893e-05
1.05236e-06
3.03095e-06
6.21377e-06
3.82267e-06
3.37403e-06
1.23361e-05
2.0112e-06
2.53359e-07
2.7742e-07
2.36968e-05
2.56428e-06
1.16877e-06
0.000612351
2.98588e-06
4.74109e-06
0.00375888
5.75622e-05
3.33233e-06
0.0018105
0.00305329
2.4089e-05
9.11373e-06
0.000381207
0.00242417
4.13903e-06
0.000277443
0.00281246
2.10698e-05
0.00331745
2.24306e-08
9.12699e-06
5.25709e-08
3.18233e-07
1.77141e-05
0.0002363
8.74615e-07
1.35162e-05
3.13338e-05
0.000175606
1.2343e-05
9.54129e-08
8.80742e-06
4.37495e-06
6.97481e-06
8.46026e-09
1.00497e-05
5.23062e-06
2.809e-07
7.6667e-06
1.43046e-07
0.000862524
0.00145676
4.74047e-06
1.99916e-07
0.000182827
6.158e-05
0.00108452
0.000174908
1.66885e-05
2.47426e-05
4.63253e-06
0.000205183
5.55691e-07
9.66539e-05
1.02336e-05
1.14989e-08
3.88526e-06
7.17896e-06
8.39874e-07
8.4674e-06
5.52292e-07
2.19343e-05
0.00201873
9.71822e-06
5.58704e-06
3.86818e-06
5.13959e-05
1.13887e-05
1.53698e-05
0.0243391
1.22247e-05
9.28212e-06
2.89497e-07
5.16417e-06
4.27671e-06
0.000182072
9.18692e-06
0.00239563
0.00139078
0.00204638
1.85282e-07
0.000442957
1.06294e-07
9.26726e-08
1.40536e-05
1.16558e-07
6.85384e-06
1.10225e-05
6.13462e-06
7.26728e-06
2.58522e-05
4.13354e-07
8.4146e-06
1.96388e-07
0.00256066
3.86147e-06
2.25989e-05
1.63136e-07
0.000352579
1.46084e-05
5.54526e-06
0.00220446
0.00354357
2.89147e-09
0.00241851
2.39707e-07
5.6259e-06
3.10652e-06
1.19375e-05
1.10009e-05
6.6081e-06
5.39383e-06
0.00128582
4.41076e-06
1.4157e-05
5.19411e-05
1.42258e-05
1.84172e-07
8.93052e-06
1.24836e-05
1.46709e-05
0.00179341
2.0115e-05
5.67026e-06
0.000565988
3.16037e-06
1.42962e-05
8.94944e-06
2.26775e-05
0.00037999
0.00159637
1.55868e-07
0.000227587
1.56556e-07
2.94079e-06
0.000272509
4.63097e-05
2.2585e-05
1.21963e-07
3.25101e-06
5.76258e-06
1.09014e-05
5.51178e-05
0.000319457
1.51201e-06
6.18197e-06
9.19142e-06
1.45473e-05
0.000349305
5.92494e-06
0.249601
9.16245e-05
4.15562e-07
1.73948e-05
6.82743e-07
5.20468e-09
5.29231e-06
8.57789e-08
2.19135e-06
0.00147512
4.34776e-06
3.35887e-05
0.0145633
1.26935e-06
0.0012288
0.00447743
0.00123397
1.10928e-05
8.57714e-06
1.01135e-05
1.20965e-06
0.000483511
4.74285e-07
1.60496e-06
8.51235e-06
9.19289e-06
0.000290723
1.34153e-05
2.08326e-05
5.75917e-06
0.00228128
0.00124193
8.42312e-06
1.15528e-05
1.38867e-05
6.18282e-07
3.33853e-11
0.000355062
2.29088e-07
2.08786e-11
2.496e-06
4.60547e-06
4.37017e-06
2.22561e-05
0.000346156
9.29062e-06
1.54775e-05
3.81142e-06
2.34745e-05
2.63939e-07
1.14264e-05
7.38129e-05
1.16418e-05
6.0058e-06
9.3797e-07
0.000232093
1.92575e-07
2.17689e-07
8.66042e-07
0.000372803
0.000352595
2.44708e-05
0.000157938
0.00149286
2.29483e-05
5.85127e-08
0.00145568
1.5193e-06
9.08193e-07
1.29027e-07
6.95992e-07
0.00034308
0.000581628
0.000220428
2.22191e-05
3.3534e-06
1.26226e-06
1.00924e-05
9.07459e-06
2.49769e-07
0.000117055
3.95448e-05
0.00103792
0.00163926
1.0615e-05
2.13519e-06
1.13224e-08
0.000790707
1.21214e-05
2.21748e-05
1.43576e-07
6.10859e-07
2.25035e-05
0.00112095
0.00121875
1.09965e-05
1.61591e-05
0.000375794
5.88049e-06
3.06524e-06
0.00194254
1.38042e-07
5.67299e-06
0.00130592
0.0028469
5.42693e-07
0.00148525
6.71925e-06
0.000954788
1.0897e-07
1.8811e-07
2.00508e-06
9.06658e-06
4.24907e-06
0.00170502
7.89732e-06
2.09508e-08
5.98853e-06
9.603e-06
7.16439e-06
9.7587e-08
4.25433e-06
1.71547e-05
2.02892e-05
1.53906e-06
0.000496854
3.73095e-06
2.10979e-06
5.80814e-06
2.81808e-06
6.09797e-08
0.00154237
5.21516e-07
1.91534e-05
3.2734e-10
1.65326e-05
0.00022684
3.12861e-08
0.00138294
0.00131656
0.00360331
2.7742e-08
5.40646e-06
7.77646e-07
8.6949e-07
1.07686e-05
5.0411e-06
1.3791e-05
0.00364368
7.47615e-08
8.34178e-06
1.25237e-05
7.86968e-06
9.72317e-06
4.96489e-06
0.0009409
8.9657e-06
1.84786e-06
2.04502e-07
2.71815e-05
2.83722e-06
7.0978e-06
2.03024e-06
1.56123e-07
1.14788e-05
1.81305e-05
4.59524e-06
3.9922e-06
0.00429234
3.13385e-06
5.17464e-07
8.47074e-07
7.9188e-06