/*--------------------------------*- C++ -*----------------------------------*\
  =========                 |
  \\      /  F ield         | OpenFOAM: The Open Source CFD Toolbox
   \\    /   O peration     | Website:  https://openfoam.org
    \\  /    A nd           | Version:  8
     \\/     M anipulation  |
\*---------------------------------------------------------------------------*/
FoamFile
{
    version     2.0;
    format      ascii;
    class       volScalarField;
    location    "5e-05";
    object      epsilon;
}
// * * * * * * * * * * * * * * * * * * * * * * * * * * * * * * * * * * * * * //

dimensions      [0 2 -3 0 0 0 0];

internalField   nonuniform List<scalar> 
23640
(
7.98655e+08
5.54125e+09
9.98604e+07
2.81781e+09
5.04525e+09
2.20683e+10
3.29238e+09
2.63841e+09
2.79041e+10
1.49601e+11
4.84105e+09
1.08765e+10
6.02273e+08
4.79226e+09
1.23963e+11
1.69467e+10
4.19554e+08
3.79417e+10
1.36734e+10
3.23939e+10
7.06056e+09
5.78468e+08
7.26145e+09
1.78056e+10
3.85563e+09
4.90895e+09
4.74894e+10
3.10119e+10
1.87271e+08
1.41228e+09
3.84554e+08
1.0036e+09
7.07397e+09
2.0159e+10
3.4881e+10
2.0759e+11
4.27195e+08
2.81187e+08
3.57567e+09
8.39298e+09
1.50202e+10
2.65409e+10
4.18025e+09
1.02633e+09
2.43265e+09
7.81383e+10
5.40756e+08
7.42334e+09
1.45027e+11
2.72778e+09
2.12074e+08
2.95866e+10
2.15006e+11
2.81215e+08
2.7731e+09
2.818e+11
2.81791e+10
7.42345e+09
1.28685e+09
4.6213e+09
3.71432e+08
5.57187e+10
3.06881e+09
2.65815e+10
1.75528e+09
2.70918e+10
1.51557e+10
4.51909e+09
6.96908e+10
4.31743e+09
7.32062e+09
1.97746e+10
1.52381e+10
3.0361e+08
2.6875e+10
3.63708e+09
7.72567e+11
5.69345e+08
1.31918e+10
3.113e+09
8.10015e+10
7.05594e+10
1.65233e+09
1.67461e+09
1.71233e+09
2.52275e+11
3.0452e+10
2.57702e+10
2.64781e+10
1.04784e+11
2.00534e+09
7.79036e+09
7.89934e+10
1.35429e+10
2.9241e+10
1.04519e+09
2.49705e+10
2.27052e+11
8.08353e+09
9.78766e+10
6.48382e+10
2.70093e+08
2.75958e+10
2.31842e+08
2.87366e+10
2.66371e+08
5.23016e+09
1.97616e+08
1.18851e+10
9.47412e+09
3.15084e+08
1.46699e+10
1.2604e+10
1.47764e+10
3.32926e+11
1.3089e+08
1.43854e+11
2.73665e+08
7.5226e+08
1.51656e+09
4.41552e+10
9.00201e+08
2.64203e+11
8.44707e+08
5.22558e+10
1.2809e+10
1.63735e+08
1.23022e+11
2.13799e+10
1.34435e+10
3.2393e+10
5.75436e+10
6.01882e+08
5.19753e+10
3.52973e+08
3.15547e+10
5.55918e+09
4.17113e+09
5.02622e+09
2.2096e+10
8.77303e+09
2.91351e+10
1.66852e+10
4.79339e+09
2.15392e+10
6.46114e+09
4.27607e+09
6.3042e+09
2.12441e+09
7.27098e+10
2.91947e+09
5.48017e+10
1.82724e+09
2.69661e+09
4.33155e+10
2.08554e+08
3.32137e+09
1.65154e+10
1.43272e+10
4.80235e+10
9.67956e+10
2.49398e+11
2.21834e+11
1.28989e+10
1.07739e+08
8.63769e+07
5.67511e+09
1.51311e+11
5.09766e+09
5.57444e+10
7.06091e+09
3.25995e+11
2.47109e+10
1.147e+10
3.45788e+09
3.84155e+09
1.34342e+10
3.47785e+11
3.09534e+09
1.41266e+09
2.40775e+09
1.45214e+11
4.07321e+09
3.04985e+10
2.39204e+08
5.16548e+10
4.94362e+10
5.90495e+10
6.13916e+09
3.28616e+10
2.96023e+10
4.76569e+09
1.17482e+09
1.81958e+09
1.94199e+08
1.15804e+10
2.99329e+10
5.20949e+10
1.14419e+11
7.48526e+10
8.36244e+09
7.548e+08
3.38116e+08
2.60243e+10
1.09774e+10
1.5791e+09
1.16589e+11
7.24966e+09
2.46214e+11
5.07429e+09
4.6269e+09
4.54012e+09
1.09892e+09
1.62709e+09
5.1457e+10
9.33304e+09
9.10912e+09
3.14244e+10
8.09447e+09
3.99543e+08
1.12965e+09
4.91251e+09
8.26086e+09
1.14781e+10
1.62704e+10
1.17204e+10
6.84953e+09
9.12039e+08
5.30388e+08
1.97877e+09
8.21949e+08
2.00632e+08
2.7965e+10
4.93428e+09
1.61558e+10
6.87731e+10
7.07451e+09
9.61282e+09
2.11897e+09
1.14463e+11
6.67661e+10
2.07899e+11
1.53959e+10
2.44055e+10
2.76718e+09
2.19223e+08
2.2e+09
3.12871e+11
2.88773e+09
1.58571e+10
4.28117e+09
6.01871e+09
5.34936e+08
3.53116e+09
1.36593e+09
8.24247e+09
2.67252e+08
2.08465e+08
4.58081e+09
5.35315e+09
2.77774e+09
3.31949e+08
5.87372e+10
1.1017e+10
2.85837e+08
4.05884e+09
4.83174e+10
7.52213e+09
1.39306e+09
3.3699e+10
5.82714e+10
1.15754e+08
5.71826e+10
5.46829e+09
1.33362e+11
1.92286e+10
2.42319e+08
9.31351e+08
2.56797e+10
1.1176e+10
1.33974e+10
4.04831e+08
5.80925e+10
4.42029e+09
1.31411e+10
6.05166e+10
5.7149e+09
5.54602e+10
5.36467e+09
4.50355e+09
1.66771e+09
2.82617e+08
9.11394e+09
8.17584e+09
5.13409e+09
4.21978e+09
1.21418e+10
3.07348e+08
6.13272e+09
9.23381e+08
1.55264e+11
2.548e+10
7.95005e+08
7.32189e+09
5.95411e+09
1.22065e+08
5.99603e+10
7.19623e+10
2.76333e+09
1.69484e+10
1.74256e+08
9.91152e+10
3.52718e+09
1.33731e+10
8.67762e+09
4.86696e+10
5.48001e+10
1.16312e+08
2.83069e+10
1.39383e+10
1.62252e+09
1.906e+10
3.5292e+10
3.04798e+10
3.58236e+08
1.38297e+11
3.85804e+10
4.52211e+09
2.59947e+09
3.6246e+08
7.23053e+10
2.58761e+09
3.13331e+10
4.19797e+10
4.39022e+09
7.09241e+09
1.09919e+11
5.08541e+10
4.0218e+09
5.94287e+09
3.06452e+11
2.5625e+10
4.29897e+10
1.05108e+09
5.22984e+09
4.08631e+10
5.92584e+10
9.6237e+09
1.13912e+10
2.71486e+10
5.34801e+09
1.34256e+11
2.13032e+08
2.66508e+08
3.34772e+10
9.77926e+07
2.51255e+09
3.18808e+08
3.15387e+09
4.82541e+09
4.8037e+10
6.11967e+09
2.2545e+10
8.37045e+08
9.35143e+09
1.29036e+08
9.22344e+07
7.01743e+10
1.3212e+10
1.40098e+09
2.47688e+11
7.13075e+10
1.72956e+08
8.41858e+09
5.10053e+10
2.07425e+08
7.96212e+09
3.08171e+08
4.63567e+09
4.64905e+10
1.49818e+10
7.08833e+10
8.39525e+09
2.47115e+10
1.05931e+10
2.7445e+08
1.07332e+11
7.85004e+07
1.01242e+10
1.28082e+08
3.61864e+10
3.95169e+10
4.52489e+11
2.05062e+11
6.43783e+10
1.17732e+10
1.03835e+09
3.26126e+08
5.2771e+08
6.65686e+10
3.27606e+09
1.29619e+10
3.49182e+10
1.25639e+08
5.65863e+08
6.25282e+09
3.90975e+09
2.04214e+08
8.93019e+10
1.38944e+10
5.37903e+10
2.90601e+09
3.94385e+09
4.49168e+10
4.20875e+09
1.40721e+10
6.21042e+10
7.02073e+08
4.31793e+10
2.3622e+10
4.50625e+09
3.60659e+10
6.21404e+09
5.68366e+10
1.67044e+11
1.16169e+08
9.98062e+08
2.97159e+11
6.02444e+09
4.44091e+09
3.80541e+08
2.3198e+09
5.34287e+09
7.7344e+09
3.95688e+10
5.1018e+09
2.32586e+11
1.20471e+11
1.4392e+11
1.02299e+10
4.24968e+10
3.32947e+09
2.05478e+11
1.68434e+11
4.25295e+10
9.77361e+09
6.39923e+10
6.72191e+10
7.05991e+09
7.10963e+10
1.72952e+06
1.47895e+10
3.41742e+09
3.72043e+10
6.59987e+10
3.2981e+08
4.39113e+09
5.78316e+10
5.73249e+09
9.55779e+10
4.07986e+10
1.27962e+10
1.40559e+10
1.19423e+07
9.43279e+10
1.54005e+09
1.44265e+11
3.76743e+11
8.86069e+10
3.02284e+10
3.02606e+10
1.48229e+09
2.68556e+09
2.36643e+08
4.17364e+09
6.34237e+10
4.21635e+09
5.42571e+07
9.60049e+10
5.08974e+09
7.40778e+09
2.63546e+08
2.27161e+10
1.65545e+11
7.25873e+10
2.57148e+11
9.05746e+09
1.06295e+09
4.03797e+08
4.36602e+08
4.52596e+10
7.95164e+09
5.42197e+08
1.76985e+10
4.54542e+09
6.0865e+09
7.63132e+10
8.45304e+10
3.14897e+11
3.69836e+08
9.82096e+08
3.28105e+09
1.18883e+08
6.78156e+09
1.23075e+09
1.33743e+09
6.53115e+10
1.59903e+08
2.78587e+08
5.89216e+08
7.08621e+10
1.51211e+09
2.09114e+11
2.74806e+11
8.14224e+09
1.4126e+10
1.33413e+10
1.96235e+08
2.32399e+10
4.03174e+09
5.45801e+10
3.94207e+10
1.11657e+06
1.57528e+11
5.5155e+09
1.29619e+10
9.41539e+09
4.1395e+10
1.45159e+10
1.27272e+09
7.22226e+09
1.49345e+10
9.64619e+10
6.81647e+10
4.85807e+11
7.20289e+08
1.97072e+11
5.70404e+10
2.0076e+08
4.95314e+10
8.26999e+09
1.27868e+09
4.81347e+09
6.04826e+09
3.34023e+08
3.99701e+09
1.39794e+11
2.09233e+10
2.87367e+09
2.84309e+09
1.24931e+11
5.0626e+09
4.77873e+11
4.29441e+08
1.45566e+11
8.64166e+08
5.55505e+09
1.97319e+11
5.57493e+09
3.28284e+09
1.4661e+10
5.76138e+09
7.08705e+09
7.6374e+10
1.95323e+10
7.64086e+09
1.92352e+10
9.74183e+09
3.20512e+11
1.14006e+11
2.49548e+06
4.74428e+09
4.45482e+09
2.26216e+08
2.60855e+08
1.33673e+10
2.74628e+11
2.5981e+11
3.95939e+10
4.95058e+08
2.19357e+09
5.88669e+09
3.03002e+08
4.30691e+10
1.29691e+10
2.43125e+10
8.50246e+09
3.89076e+10
4.83031e+09
9.57855e+09
2.89324e+09
3.70196e+09
1.4518e+10
2.16112e+10
1.31182e+09
2.76511e+10
2.91421e+10
5.35878e+10
1.50448e+09
9.21143e+10
4.23101e+09
6.8674e+09
4.97071e+09
1.00123e+11
1.28666e+09
1.47265e+11
6.50048e+10
1.95451e+09
1.33425e+10
9.70218e+09
1.40811e+09
3.01848e+09
1.0036e+10
2.01377e+09
2.64263e+10
6.34014e+10
4.39525e+11
8.14216e+09
3.21828e+08
1.00113e+09
1.12389e+10
1.24266e+10
2.11179e+10
2.8711e+09
5.49048e+09
3.03827e+10
6.8384e+09
8.03544e+09
1.11539e+09
1.98469e+11
1.31745e+08
7.31175e+09
2.85571e+09
1.4378e+09
1.91641e+08
2.82874e+09
1.02007e+09
7.48541e+09
3.30113e+08
1.15337e+11
2.2468e+10
2.57645e+11
5.91797e+09
5.57036e+08
1.49042e+11
5.96777e+09
8.2778e+09
5.4649e+10
2.71638e+08
9.95906e+09
9.35041e+10
1.1835e+09
2.4442e+10
1.89351e+09
3.02055e+10
1.09721e+10
3.05309e+11
8.88259e+09
6.47349e+08
1.77423e+10
2.23299e+10
8.90024e+10
1.2935e+08
1.56124e+11
6.30453e+08
4.16178e+08
2.70945e+09
1.53427e+09
2.18649e+10
1.27524e+10
9.22453e+08
8.0641e+09
7.05605e+09
9.62671e+10
2.44042e+10
3.12961e+08
7.2384e+08
5.30779e+09
4.44559e+08
3.24312e+09
4.9024e+09
4.97274e+09
5.69511e+09
1.81726e+09
1.57719e+10
2.46804e+08
3.40256e+09
1.83955e+10
8.82459e+10
9.70712e+08
1.81309e+08
1.12104e+11
8.17089e+10
3.29126e+09
4.12756e+10
3.95744e+08
6.32918e+10
3.30788e+10
9.7347e+09
1.21212e+10
3.89238e+09
2.52644e+10
2.29496e+10
1.97717e+10
3.77106e+08
2.58909e+10
1.11454e+10
6.29957e+10
6.11121e+09
6.88351e+10
1.30814e+10
1.25905e+10
2.35699e+11
4.65476e+08
3.39136e+08
1.91214e+11
4.78566e+10
5.26454e+09
7.97582e+09
1.74177e+11
4.52655e+10
6.23917e+10
5.44831e+10
4.12156e+08
4.08899e+10
4.11386e+07
2.39268e+08
2.18413e+08
2.31829e+10
2.74028e+09
7.1941e+09
3.24259e+08
3.35225e+09
7.89525e+09
1.83516e+08
1.10895e+10
3.84675e+11
1.43276e+10
3.2477e+09
7.26228e+09
6.24485e+09
1.57003e+10
3.2035e+09
2.29662e+11
1.74463e+08
8.14485e+10
3.38454e+08
7.98706e+10
1.56275e+08
1.13554e+09
4.24306e+10
9.03509e+07
3.63148e+09
8.3758e+08
3.1067e+09
5.17297e+07
4.44548e+10
2.24701e+08
3.20206e+10
8.56342e+09
2.46825e+08
1.29841e+09
8.23441e+10
2.64655e+09
3.54735e+09
2.13403e+11
4.06363e+09
2.05717e+10
1.91929e+10
4.01306e+10
5.6109e+10
1.81294e+10
8.94764e+10
1.31415e+10
2.46688e+10
6.28464e+08
4.35771e+09
4.01388e+09
3.54249e+10
1.77307e+11
4.51613e+10
8.22742e+08
3.25692e+08
1.78532e+11
2.38665e+11
8.76739e+09
5.48702e+10
1.26514e+08
3.24419e+10
1.27383e+10
2.6167e+08
1.69747e+11
2.15717e+10
1.15413e+09
1.29928e+09
9.61808e+09
9.79573e+09
3.39777e+09
6.75141e+08
8.94334e+09
1.66006e+10
3.52888e+10
4.45088e+09
2.99703e+08
6.47213e+10
9.70039e+09
5.31466e+09
1.28887e+10
3.98873e+09
1.08173e+09
2.0829e+11
1.81421e+10
5.56178e+09
4.18763e+09
1.63326e+11
3.79119e+10
3.15918e+09
2.38845e+11
1.21889e+11
1.34123e+10
4.73581e+09
5.8729e+11
1.36346e+11
3.13853e+10
1.72368e+11
6.70821e+09
3.25922e+10
3.67808e+08
5.10879e+10
7.80601e+10
8.61965e+08
4.38631e+10
3.55902e+08
2.47493e+10
1.28507e+10
4.10497e+09
2.66464e+10
4.09712e+10
2.33098e+08
7.06338e+08
2.46788e+10
2.19479e+10
5.51477e+09
1.99813e+10
1.76917e+08
2.77713e+08
2.69491e+09
8.8827e+08
9.29747e+09
5.36226e+09
1.29955e+09
5.54166e+08
1.02466e+11
2.30302e+09
1.53653e+10
2.30743e+06
7.49546e+09
6.20168e+10
1.85968e+10
8.3166e+10
7.23114e+10
8.73164e+08
1.41416e+09
2.58426e+10
5.17312e+10
5.45614e+08
5.64257e+09
3.08244e+08
2.01873e+09
1.36134e+11
1.57342e+11
6.3193e+09
3.32669e+09
5.61111e+09
1.25481e+08
2.1479e+08
3.11146e+10
2.49435e+11
3.23788e+08
1.2398e+08
4.24317e+10
1.121e+09
2.51937e+10
4.25968e+08
2.35951e+11
3.33819e+10
3.16164e+09
3.2261e+10
3.37462e+09
2.60541e+09
5.97384e+08
5.16e+10
1.38859e+10
4.05006e+11
2.36371e+10
4.22501e+10
1.8068e+11
7.99709e+09
5.76026e+08
1.58625e+10
8.83427e+09
1.56108e+11
4.00237e+09
4.12803e+08
6.65787e+10
2.53014e+08
5.97963e+10
8.38487e+09
1.39666e+10
1.97379e+08
1.63456e+11
1.33287e+08
1.55917e+11
5.05198e+10
2.33473e+10
1.02241e+09
4.91688e+10
4.03202e+09
1.0114e+10
3.57984e+09
6.16625e+10
2.50749e+10
1.49674e+09
1.00735e+10
1.15671e+08
1.41784e+11
2.00806e+08
4.2588e+09
2.05208e+11
1.71264e+10
2.52597e+10
1.39253e+10
5.00423e+07
2.2696e+10
2.65818e+09
6.56045e+10
1.73091e+11
1.18171e+09
7.95345e+09
3.08583e+09
4.33829e+11
8.9852e+07
1.27041e+11
2.8098e+10
3.52982e+09
4.65242e+10
4.99757e+09
6.56925e+10
1.84081e+08
3.50937e+08
1.21007e+10
4.9785e+09
2.31922e+08
2.14993e+11
3.01127e+09
1.13961e+09
5.24556e+09
2.51921e+09
5.12297e+09
1.54496e+08
4.3766e+10
1.84529e+09
1.09035e+10
2.05115e+09
1.36801e+10
7.28221e+09
6.03619e+09
9.21497e+09
1.44751e+09
4.97152e+09
6.73631e+09
8.20838e+08
4.81069e+09
4.64369e+09
2.39144e+11
6.08174e+08
1.86683e+10
2.02849e+11
1.99618e+10
3.93159e+09
4.28651e+11
3.00153e+09
1.2293e+10
6.45011e+09
5.05509e+09
1.4276e+10
7.41751e+08
7.85632e+08
8.31504e+09
1.39412e+10
1.34151e+09
3.39726e+09
4.45714e+09
1.90104e+10
6.51879e+09
3.38887e+09
8.32364e+09
1.30907e+09
1.1554e+10
5.97279e+10
3.04702e+10
1.88986e+09
3.5572e+10
3.37301e+10
9.426e+10
5.75463e+10
1.08608e+11
2.0149e+08
2.01958e+11
3.06001e+11
2.62172e+08
1.28476e+09
3.33235e+08
3.12244e+09
1.61192e+10
3.63399e+10
4.73612e+09
3.43082e+09
2.37281e+10
6.11714e+11
1.24741e+10
1.79979e+09
1.20991e+08
1.05054e+10
3.62576e+10
7.25872e+08
4.03937e+09
4.3291e+09
1.13368e+11
5.54174e+09
1.82447e+10
4.16207e+10
3.46311e+09
2.45521e+10
3.76229e+08
1.80162e+09
6.50177e+08
8.56576e+10
2.2236e+09
5.68743e+08
1.55085e+09
4.76363e+09
1.93785e+11
3.20399e+09
3.92391e+08
8.87091e+10
4.80853e+10
6.33425e+10
1.92762e+09
4.40153e+10
3.62823e+09
8.94766e+09
2.43331e+09
1.25421e+10
1.38046e+10
1.37098e+09
3.30388e+10
3.11719e+09
6.02659e+11
1.7615e+10
1.22212e+10
1.81633e+10
9.16829e+08
2.84611e+09
5.42255e+09
3.43405e+09
4.01932e+08
6.03901e+10
6.52536e+10
5.97419e+10
5.30729e+09
1.3489e+08
1.6571e+11
3.12363e+11
1.77811e+11
3.92464e+09
5.1719e+10
3.63798e+08
3.08584e+09
1.02961e+10
5.96326e+08
2.0065e+11
3.20469e+10
4.94277e+10
3.37972e+11
1.39618e+11
8.65976e+10
1.20459e+10
1.08303e+10
1.56941e+10
3.01479e+10
3.8307e+09
1.26308e+09
6.65483e+10
3.49579e+11
1.04735e+09
6.89784e+08
3.76273e+08
1.48124e+11
4.27902e+09
1.12085e+10
2.29315e+08
8.40372e+08
2.74103e+09
2.63487e+08
6.84849e+09
6.79158e+09
9.26774e+08
2.93511e+09
6.29632e+10
2.19475e+10
7.14737e+09
4.19001e+08
4.36775e+08
3.10792e+09
6.77945e+09
7.73397e+10
4.27516e+10
2.21685e+11
3.36498e+10
5.6421e+09
5.51194e+08
1.76342e+09
1.94788e+08
3.24079e+08
6.52002e+08
1.26551e+09
2.01258e+10
1.24979e+09
2.27095e+09
1.29224e+10
3.13295e+11
3.23329e+11
3.54735e+09
1.43924e+09
1.77222e+08
7.59341e+08
5.02129e+09
1.06156e+11
2.23375e+08
2.52146e+10
2.82801e+11
1.47351e+08
4.6735e+09
5.94455e+09
2.20411e+11
2.75212e+09
8.27065e+09
3.88455e+08
5.03951e+10
3.66612e+10
3.27163e+08
1.73363e+09
4.52196e+09
2.20265e+10
1.92584e+08
7.22543e+10
2.87799e+11
3.14077e+10
6.00491e+09
1.90807e+10
1.70317e+11
2.9181e+10
3.35481e+08
1.15076e+11
4.57138e+10
1.87302e+10
2.66283e+10
2.21529e+10
3.99849e+10
2.26785e+10
2.91507e+11
4.95281e+10
4.70831e+11
1.96915e+11
8.55017e+10
1.19086e+09
1.24756e+10
4.75584e+10
3.69141e+09
7.35741e+08
1.37638e+10
1.04129e+10
1.72353e+08
4.08281e+08
9.18531e+09
1.71673e+11
1.01334e+08
1.65366e+10
1.10559e+09
2.60059e+10
1.25588e+09
1.32379e+10
4.94634e+09
2.97692e+09
8.42541e+09
2.75244e+08
2.09514e+06
4.25561e+09
4.16706e+09
5.73472e+09
2.6595e+10
4.09058e+09
1.14342e+10
1.53414e+08
3.45657e+10
2.08854e+11
1.2397e+10
5.04392e+11
4.53253e+09
9.27026e+07
1.19713e+10
6.86796e+09
9.55503e+09
1.38142e+09
6.0032e+09
3.91703e+08
3.62872e+10
7.59002e+08
2.92098e+08
5.34419e+09
2.1711e+11
1.29292e+09
3.99262e+10
5.16682e+09
2.03228e+10
3.05626e+09
8.02392e+10
2.56892e+09
4.42452e+10
1.40317e+11
4.65648e+09
1.7501e+10
1.49877e+09
4.84284e+07
4.20746e+09
1.04898e+10
2.62004e+08
4.51983e+08
6.83812e+09
1.18935e+10
4.40907e+10
1.98954e+10
6.09214e+09
8.31578e+10
4.58593e+08
6.357e+09
3.72066e+10
7.19257e+09
1.95538e+11
1.20188e+11
3.27432e+11
3.52514e+10
1.92177e+08
1.55963e+11
3.73578e+10
3.30746e+08
3.17882e+09
3.63701e+08
3.70886e+10
3.94859e+09
1.31952e+10
2.53876e+10
4.02181e+10
6.09796e+10
1.29549e+09
6.15354e+09
9.63901e+08
1.8693e+08
1.63309e+09
1.43596e+10
1.16351e+09
3.42087e+11
5.07043e+07
5.89394e+09
4.01357e+09
4.72453e+10
4.07225e+09
2.11333e+10
1.02149e+09
7.77289e+10
3.55764e+10
1.54454e+10
5.78901e+09
1.27426e+11
6.91087e+08
4.06402e+08
4.41497e+08
2.39779e+11
4.15739e+10
1.37064e+10
7.94969e+10
1.68603e+11
1.27883e+09
4.78475e+11
5.07814e+10
1.42807e+10
2.51428e+09
2.23414e+08
7.30797e+09
8.14582e+09
3.16073e+08
1.92931e+11
3.78593e+08
3.59548e+08
1.46119e+09
1.19849e+06
9.5456e+10
1.2263e+10
3.32468e+10
1.41484e+10
5.11035e+09
4.10452e+09
1.87795e+09
1.61156e+11
3.13774e+10
8.4239e+09
3.23061e+09
8.68682e+09
3.75206e+08
3.17382e+10
2.92785e+08
3.3613e+08
4.10111e+10
1.27278e+08
4.06046e+10
2.07055e+08
6.55218e+09
3.83396e+11
4.07583e+10
3.42954e+09
1.05746e+10
8.41973e+09
1.38121e+10
4.41643e+09
1.93558e+09
9.64708e+10
1.02963e+10
3.22102e+09
3.42067e+09
1.42066e+08
1.26774e+08
8.27436e+08
2.11959e+08
3.44388e+08
3.33244e+10
5.22302e+10
5.69079e+09
1.4775e+11
3.22293e+09
1.56222e+11
2.11786e+10
2.99031e+08
4.32136e+10
2.28662e+10
1.83537e+08
7.54434e+09
8.29679e+10
1.51863e+11
5.95105e+10
3.39746e+11
1.80027e+10
5.42161e+08
3.81604e+09
2.15981e+10
4.26463e+09
1.49945e+09
2.02398e+09
3.10012e+09
3.49037e+08
1.86246e+08
2.11993e+08
4.72635e+09
1.2388e+10
8.23113e+10
2.04191e+11
1.39869e+10
5.42646e+09
1.33484e+09
3.05137e+08
2.82416e+09
6.8893e+09
3.02472e+08
6.40295e+10
7.6949e+10
2.53298e+11
3.25499e+10
6.01656e+10
3.62431e+09
4.97947e+10
6.33703e+09
2.13486e+08
2.22193e+10
1.28616e+11
1.50211e+11
5.74752e+09
3.76169e+10
4.80308e+10
1.75199e+10
7.90877e+10
7.31804e+10
3.09247e+08
1.80387e+10
2.28507e+10
1.00174e+11
2.11915e+10
1.21954e+08
4.0255e+09
2.99344e+10
1.0501e+11
5.53073e+09
1.29606e+08
2.57956e+11
4.35737e+08
1.27643e+10
1.05802e+10
2.33682e+08
6.87918e+09
4.50289e+10
3.61764e+09
4.61813e+09
2.52512e+10
7.44234e+10
3.17129e+09
1.4898e+10
2.32395e+10
6.02066e+10
3.33844e+10
1.4726e+10
4.04512e+10
6.06036e+08
7.33431e+09
3.55117e+08
2.48821e+11
4.89079e+08
2.38379e+09
4.16477e+11
2.9932e+08
9.92291e+09
9.11612e+07
5.94825e+09
7.73475e+08
6.69892e+10
1.90595e+10
3.6575e+09
5.47913e+08
2.0776e+08
1.02164e+09
7.91142e+09
2.82193e+11
5.73157e+08
8.24029e+09
5.69038e+08
2.4086e+10
2.24699e+09
6.99371e+10
3.41139e+10
4.37055e+11
2.52673e+09
9.76195e+09
5.82595e+09
1.15121e+08
9.21773e+06
5.35428e+08
2.0258e+10
1.43454e+11
4.24205e+09
5.35691e+09
9.79586e+10
3.47601e+10
5.44977e+09
1.11039e+10
2.99253e+11
5.31891e+10
4.49372e+09
2.0911e+10
7.86599e+09
3.40023e+10
4.95111e+10
8.7881e+08
5.05191e+10
2.58242e+10
3.63557e+09
3.04217e+09
1.34286e+11
4.04217e+09
1.95524e+10
2.61888e+10
1.35601e+11
5.69026e+09
5.59449e+10
5.82423e+09
3.00399e+08
3.77771e+08
3.72739e+09
5.71026e+09
2.65458e+10
6.31569e+09
1.20759e+09
4.70021e+09
4.82234e+09
1.27559e+11
8.69854e+09
2.7393e+09
2.24223e+09
3.44924e+09
5.14298e+09
2.83171e+08
3.96372e+10
2.19573e+10
1.70541e+10
2.28017e+10
5.72249e+10
3.17867e+09
1.29464e+09
2.40943e+10
1.10565e+11
1.18272e+11
1.24486e+10
3.13267e+09
2.81235e+09
7.43386e+09
3.9241e+09
1.79145e+06
3.13392e+08
2.55021e+09
5.61391e+10
2.36435e+10
8.43686e+10
2.2537e+11
2.26693e+08
2.0726e+08
1.38092e+11
2.74293e+09
7.67882e+09
2.13608e+11
1.21403e+10
3.14953e+09
7.08807e+09
1.12666e+10
6.85241e+09
1.10257e+08
1.07399e+11
3.90392e+09
3.09581e+09
6.38885e+08
2.2291e+10
9.28229e+09
4.89729e+10
7.02376e+08
5.50153e+09
1.11488e+11
5.92117e+09
6.05321e+08
4.08084e+10
4.5316e+11
5.1133e+09
1.69154e+08
3.20675e+09
1.39384e+10
1.29378e+11
2.29641e+11
4.43765e+10
1.81726e+10
7.24929e+10
2.62426e+09
5.81994e+10
6.26418e+09
5.4724e+09
1.70872e+10
1.9399e+11
3.66253e+10
3.3742e+08
2.66209e+08
9.71814e+09
1.51528e+10
8.16307e+09
3.97686e+06
5.15113e+09
1.00785e+10
9.60148e+10
3.57539e+09
1.71762e+09
1.25247e+10
1.64443e+10
4.32934e+09
6.11116e+10
1.46651e+09
3.06488e+10
3.52249e+10
2.80334e+09
3.06072e+10
2.17261e+10
9.57527e+10
8.84365e+09
2.78333e+10
1.60411e+11
1.30578e+09
8.48768e+10
4.05134e+10
2.08135e+10
3.28028e+09
4.1353e+10
3.05024e+10
4.0002e+09
1.63035e+11
3.91723e+09
3.48341e+09
4.94335e+10
1.03016e+08
1.33177e+11
1.43713e+09
2.94448e+10
1.58059e+11
6.90562e+09
3.5544e+09
2.24664e+11
5.58943e+08
5.72378e+10
1.48344e+09
1.9695e+11
2.95645e+09
3.08957e+09
3.95593e+08
4.47988e+10
2.86368e+09
1.20858e+09
3.18989e+10
1.29013e+10
1.09678e+10
7.87234e+10
2.35827e+08
3.11546e+09
1.47999e+10
9.39304e+09
4.73746e+10
5.18842e+10
3.51404e+09
4.93585e+10
5.61455e+09
4.84065e+10
7.43998e+08
4.77137e+10
4.35592e+09
5.2667e+10
4.98579e+09
2.07476e+09
3.95661e+09
9.53516e+09
2.30956e+09
2.70786e+09
4.30847e+08
8.08939e+08
1.89179e+10
8.38412e+09
2.82669e+09
1.78908e+08
2.0082e+10
1.39085e+11
1.49284e+10
4.21128e+09
4.20394e+10
4.34853e+09
2.15085e+08
7.14171e+08
4.61727e+09
2.2435e+10
3.31034e+10
1.3439e+09
2.39622e+08
6.06266e+08
7.91119e+08
5.47914e+10
5.29363e+10
1.23176e+09
8.49507e+10
8.02077e+08
1.65101e+09
3.3955e+08
1.51644e+09
1.12814e+09
4.19772e+08
1.31706e+11
1.1356e+11
6.85364e+08
1.63956e+10
3.91898e+09
1.07584e+10
5.85063e+09
8.43991e+09
5.21025e+10
1.96974e+10
4.25548e+10
3.14886e+09
3.85701e+09
8.97152e+08
2.06494e+10
9.85982e+08
1.8624e+08
3.63014e+10
1.69332e+09
5.47462e+08
1.42353e+11
1.1122e+08
3.26043e+09
1.82375e+09
1.0688e+10
4.52228e+10
2.3067e+09
1.91663e+10
5.17728e+09
9.04131e+09
4.58815e+09
7.90135e+09
1.06427e+10
1.77001e+10
3.82706e+10
3.67412e+06
9.22197e+09
2.40907e+08
9.63976e+09
8.1224e+09
1.78823e+10
2.01967e+09
2.80939e+09
6.65026e+09
5.48174e+09
3.20275e+09
6.3759e+08
1.65871e+08
4.00137e+11
5.76538e+09
1.06783e+11
8.27735e+10
8.5936e+09
3.51244e+11
6.55352e+09
1.56075e+08
3.65942e+08
7.01538e+09
1.99142e+10
5.13234e+09
2.3258e+10
7.03407e+09
5.49509e+09
4.0838e+09
2.52997e+11
1.06073e+11
2.38048e+09
8.86472e+08
3.30788e+09
4.56443e+09
4.96268e+10
6.72477e+10
7.19688e+10
7.48936e+10
2.74092e+11
3.4931e+09
2.0266e+07
7.58051e+09
3.63235e+10
1.54415e+10
5.9702e+08
7.56297e+10
2.87476e+09
2.77718e+09
8.88706e+07
1.62425e+10
2.70253e+10
9.72287e+09
3.25919e+10
8.60694e+09
3.38139e+10
7.0071e+10
5.18145e+10
1.13366e+08
1.11194e+10
4.85703e+10
3.30751e+09
1.88078e+09
3.64398e+09
1.19719e+11
5.33031e+08
2.31884e+08
3.17147e+09
5.05001e+10
3.27329e+09
4.44767e+10
3.36457e+10
5.89797e+10
4.1995e+09
2.00866e+10
4.82039e+10
6.4099e+09
1.99308e+11
5.63123e+09
2.41091e+10
7.45877e+10
7.78151e+09
2.06596e+11
3.82916e+10
8.29063e+09
9.51485e+08
1.8096e+10
1.72701e+10
5.1466e+10
5.077e+10
4.54203e+08
4.25587e+09
3.00587e+10
3.35758e+08
1.57655e+08
7.04602e+09
1.54752e+09
1.05765e+11
1.55505e+08
3.95963e+10
5.89005e+08
1.78414e+10
2.00048e+10
3.33858e+10
6.93381e+10
6.75008e+09
2.64293e+08
1.19362e+08
1.87701e+09
3.98704e+10
1.22795e+09
5.56674e+09
1.58033e+10
2.73626e+09
3.46466e+09
3.33422e+09
1.20442e+08
4.03088e+09
5.67106e+09
2.91855e+08
6.7714e+09
7.79709e+09
1.95333e+10
7.96266e+08
9.79285e+07
8.66828e+07
2.00284e+08
1.25717e+08
1.76392e+08
1.96239e+08
8.48877e+07
1.03166e+08
1.01346e+08
2.54789e+10
5.51152e+10
2.27537e+09
1.51632e+08
2.45274e+10
3.08591e+08
2.68335e+06
8.41824e+08
1.99228e+08
1.87214e+10
5.57805e+08
9.52219e+09
3.96797e+08
3.96045e+10
3.27321e+08
3.44315e+10
3.25905e+10
1.52259e+08
1.09276e+10
4.44015e+09
2.05047e+10
9.10629e+10
5.68514e+10
1.11585e+11
1.29483e+10
1.53923e+10
2.15609e+08
1.99559e+11
3.74058e+09
1.62692e+10
7.35703e+10
1.57092e+11
2.96608e+09
7.56255e+08
1.06556e+09
6.36184e+08
7.21689e+08
1.52502e+08
7.61012e+08
1.81693e+10
1.68245e+09
2.4545e+08
4.04345e+09
2.19317e+11
5.7951e+09
1.03784e+10
5.34638e+10
5.13822e+09
1.35853e+09
5.72688e+09
5.02238e+10
1.66133e+10
3.49901e+08
9.97044e+10
1.8961e+08
9.63502e+09
2.93855e+09
1.37956e+09
6.02752e+09
1.14984e+09
3.79511e+08
2.72142e+09
9.85334e+10
9.4324e+10
1.52077e+10
2.24388e+10
2.15509e+09
2.01015e+08
1.66242e+10
7.79429e+08
1.73846e+11
3.48395e+10
4.63023e+11
6.52183e+10
5.66594e+10
2.65319e+09
5.52177e+10
4.34554e+10
1.28244e+09
3.35031e+10
3.03216e+10
3.50706e+09
3.56717e+09
7.94355e+09
4.90209e+09
5.1972e+09
3.88925e+08
2.13685e+10
4.55824e+09
1.55101e+11
3.15086e+11
1.0461e+09
6.04477e+09
4.86157e+10
1.9091e+08
3.91996e+08
1.2927e+10
2.50477e+10
4.50501e+10
8.82898e+09
1.54665e+10
2.52189e+07
8.19946e+09
8.59414e+10
5.34396e+09
5.13532e+09
1.45661e+10
3.94646e+08
2.70029e+09
3.85064e+10
6.76255e+10
2.43601e+10
2.66756e+09
2.6686e+09
1.93488e+09
2.6688e+09
1.67212e+09
1.23786e+10
2.30825e+10
1.83435e+09
2.85397e+08
2.0489e+11
9.28568e+09
4.17154e+11
1.90153e+11
1.38043e+11
3.19354e+09
6.64546e+10
3.69805e+08
2.12718e+10
3.29661e+09
5.34591e+10
4.29093e+11
3.23529e+09
1.48402e+11
6.64294e+10
3.61204e+10
1.25816e+11
9.41638e+09
3.22643e+08
1.0186e+10
3.44434e+09
2.3597e+08
1.62387e+11
1.44082e+11
5.6294e+10
2.00263e+10
3.33028e+07
7.05802e+08
4.68583e+09
5.05042e+09
4.41689e+10
2.07991e+09
3.22467e+08
9.83332e+09
1.69062e+09
4.87233e+10
1.99162e+10
4.6391e+10
1.98223e+10
5.88164e+09
8.77022e+09
6.22324e+10
3.16151e+09
1.13771e+11
1.80894e+10
7.62859e+08
3.73359e+11
2.13492e+11
2.686e+11
2.32347e+09
2.04187e+11
3.54956e+10
2.64704e+10
9.74775e+10
5.6996e+09
3.51248e+10
1.06623e+09
7.03339e+09
2.72697e+09
1.18482e+10
4.72094e+09
2.15864e+10
8.05028e+10
5.66842e+10
3.25934e+09
1.36167e+10
3.50845e+10
7.5414e+08
4.05734e+10
2.47537e+09
5.4635e+09
2.78534e+08
3.10172e+10
5.61907e+10
3.4214e+10
4.36639e+10
5.71291e+10
4.35252e+09
7.80135e+10
5.89408e+09
4.01972e+10
1.48006e+10
2.09145e+10
1.87512e+10
1.6058e+10
1.76453e+10
9.98581e+09
3.28251e+09
5.28317e+10
1.83833e+08
5.44908e+08
6.98974e+08
2.44705e+09
8.36784e+10
2.71042e+11
3.4524e+08
5.51939e+08
5.58642e+10
1.3046e+10
3.68995e+08
7.49508e+10
7.33486e+09
4.00609e+09
3.84974e+10
1.35237e+10
3.09015e+10
1.68038e+11
4.26473e+10
5.04118e+09
4.76379e+10
2.94258e+10
1.69991e+10
2.36563e+10
1.45066e+10
2.7092e+09
5.71107e+08
2.61938e+09
5.7829e+10
8.02724e+09
7.55327e+10
2.18326e+10
3.15752e+10
3.89283e+10
3.05138e+08
3.56526e+08
1.09086e+09
3.89062e+11
2.60782e+09
2.37622e+08
1.6201e+08
2.89188e+09
2.73305e+09
3.66077e+09
3.64329e+09
2.13343e+10
7.61657e+08
5.35464e+10
1.08393e+11
3.4207e+10
2.7285e+09
1.13602e+10
6.76176e+10
4.29531e+08
2.58501e+09
1.35541e+09
2.17648e+10
8.36187e+09
1.26222e+10
1.05257e+10
3.0168e+08
7.01831e+08
2.78253e+09
1.19861e+10
5.04946e+08
2.69955e+09
7.22467e+07
1.84661e+08
8.28354e+09
7.54332e+08
9.26663e+09
2.52108e+10
5.94995e+10
1.32264e+11
1.6296e+10
4.05296e+08
2.45147e+10
4.4473e+10
3.20726e+09
9.5125e+10
3.96357e+08
9.84626e+10
1.6123e+10
4.68036e+10
1.1688e+09
2.78111e+10
2.16179e+09
1.98494e+08
3.03018e+09
9.20626e+09
2.13919e+10
2.82431e+09
1.82633e+10
2.03147e+10
2.12496e+10
2.5202e+10
2.17444e+10
2.06773e+08
3.80603e+10
3.00656e+10
6.78518e+09
2.08695e+09
1.57526e+10
8.04208e+09
1.90177e+11
2.88635e+09
2.90669e+10
2.57897e+09
3.88017e+08
2.25817e+08
4.87613e+09
1.7949e+09
1.88197e+10
2.88547e+10
6.50036e+08
8.44061e+10
2.40825e+08
3.66322e+08
1.32968e+10
2.48137e+11
4.42786e+08
1.31908e+10
1.55393e+11
2.6693e+08
2.3226e+08
2.63834e+10
1.04466e+09
4.41754e+08
4.51925e+09
3.18131e+09
7.39563e+08
2.6809e+09
2.89778e+10
2.45185e+11
3.55138e+09
3.1486e+09
4.97489e+09
7.0557e+10
1.00834e+11
2.86688e+09
9.93015e+10
6.4311e+09
1.01963e+10
6.00279e+09
4.25978e+09
1.80733e+08
1.31807e+10
4.60963e+08
6.6077e+08
2.83635e+09
6.90561e+10
2.89295e+11
8.2141e+09
3.25316e+10
7.16117e+09
6.47863e+09
8.80542e+07
1.24826e+09
4.73453e+09
6.4955e+09
1.94441e+08
3.54754e+09
9.22365e+08
2.27067e+08
2.20367e+11
1.1986e+08
5.00212e+09
3.96527e+09
2.5952e+11
1.51201e+08
1.58286e+10
2.71148e+10
3.24158e+10
8.03578e+09
1.98718e+10
4.78475e+10
1.96328e+11
6.31134e+10
3.46238e+08
4.04455e+10
4.95737e+10
2.94773e+08
1.41579e+09
1.09185e+09
1.99204e+08
2.57533e+09
2.27669e+08
1.91892e+10
2.91806e+09
9.65649e+09
5.18103e+09
2.66665e+09
7.46262e+10
3.16991e+10
2.11034e+10
1.3944e+09
1.03886e+10
4.1128e+09
1.69103e+08
4.01715e+09
4.79718e+09
7.99453e+10
2.83992e+09
2.76571e+09
1.04827e+10
2.90034e+09
1.86717e+08
6.33519e+10
2.30722e+08
3.22638e+08
3.41918e+10
9.77938e+10
1.06307e+09
1.94647e+10
3.74968e+10
7.50667e+09
1.82809e+10
5.89878e+08
6.32219e+10
1.92646e+08
8.25887e+09
2.72372e+09
3.9148e+10
1.96445e+08
4.18145e+10
1.43137e+10
3.92688e+09
2.81568e+09
5.70387e+09
8.17147e+07
2.76476e+09
1.66802e+08
4.25587e+09
3.80049e+08
2.05246e+10
1.89577e+10
4.84624e+09
1.3901e+09
3.36486e+09
3.36186e+09
3.41609e+10
1.83596e+11
1.23188e+10
1.96771e+09
6.30257e+09
3.72425e+11
1.46613e+10
3.53198e+09
3.76567e+09
1.11721e+11
6.51786e+09
3.97533e+08
3.23595e+10
3.73324e+09
5.43354e+10
7.61898e+09
5.00749e+09
1.79711e+08
4.56154e+10
2.53319e+08
1.93704e+09
6.46589e+09
3.89806e+10
4.03007e+10
1.09032e+11
2.45545e+11
3.89281e+09
3.70283e+10
3.1046e+10
8.57263e+10
3.36119e+08
1.28435e+10
3.80209e+09
2.17235e+10
8.26617e+10
7.33592e+08
1.76111e+08
4.62394e+10
3.35174e+11
5.14975e+10
2.7111e+08
1.63136e+08
5.38757e+09
5.17025e+08
3.12153e+11
1.36596e+10
4.18629e+09
2.96401e+10
1.97826e+09
2.88923e+08
1.37327e+10
2.68931e+09
5.72164e+09
6.09286e+09
1.09636e+10
3.87134e+09
1.81573e+11
2.76002e+10
2.03541e+11
3.49751e+08
1.24997e+09
7.1161e+09
1.07618e+11
2.00984e+09
3.71539e+09
7.22839e+08
2.79806e+09
1.17674e+10
5.91945e+10
5.05903e+09
1.08706e+10
5.23252e+08
6.27959e+09
4.66816e+10
2.01587e+08
3.18684e+09
3.19401e+08
4.962e+09
1.95518e+09
5.27314e+10
4.40134e+10
5.91144e+10
1.08136e+10
6.50958e+09
6.29837e+10
2.7656e+08
4.01569e+09
9.77222e+10
1.3377e+11
4.72588e+09
2.92918e+08
5.33805e+10
1.03644e+11
1.49781e+08
1.70503e+11
2.42345e+10
1.84049e+10
6.99533e+10
4.36444e+10
3.2225e+09
1.9274e+10
1.4367e+08
1.30143e+10
1.79811e+10
3.17303e+08
1.98113e+08
2.11998e+08
7.84086e+09
1.73504e+10
2.04574e+10
3.05635e+10
4.15357e+08
4.42469e+08
7.37148e+09
1.3099e+09
2.65989e+08
4.10142e+10
1.01395e+11
3.75112e+10
4.36347e+09
6.4432e+10
3.33761e+08
1.9445e+08
1.02802e+10
1.01565e+10
4.10246e+09
2.23294e+08
2.06328e+08
2.10235e+10
3.38604e+10
3.18951e+10
7.40531e+09
1.31665e+10
7.30735e+10
1.32443e+11
7.23557e+09
2.98187e+09
2.30346e+08
1.43128e+10
1.23781e+10
3.25764e+09
1.27995e+11
1.27615e+10
1.03886e+11
1.66064e+10
1.03013e+08
1.91959e+08
2.76427e+08
7.97399e+09
3.06879e+09
3.06497e+09
9.40532e+09
2.6078e+08
7.61433e+08
3.98133e+10
6.73632e+09
1.0105e+08
9.51541e+10
1.23787e+10
3.25924e+10
1.63698e+09
6.89526e+09
1.78407e+10