/*--------------------------------*- C++ -*----------------------------------*\
  =========                 |
  \\      /  F ield         | OpenFOAM: The Open Source CFD Toolbox
   \\    /   O peration     | Website:  https://openfoam.org
    \\  /    A nd           | Version:  8
     \\/     M anipulation  |
\*---------------------------------------------------------------------------*/
FoamFile
{
    version     2.0;
    format      ascii;
    class       volScalarField;
    location    "5e-05";
    object      k;
}
// * * * * * * * * * * * * * * * * * * * * * * * * * * * * * * * * * * * * * //

dimensions      [0 2 -2 0 0 0 0];

internalField   nonuniform List<scalar> 
23640
(
3562.4
16969.3
255.093
28001.3
17352.2
19003.9
12745.1
8583.05
47621
33011.3
21925.1
26519.3
4513.36
16115.2
34885.5
14363.2
2159.37
46093.1
38208.7
46902.5
21995.6
392.526
23033.8
12138
14039.7
16395
71936.8
51705.3
1346.8
6969.59
3351.64
51816
21287.7
38075.4
39696.4
43180.6
2220
2279.61
3053.37
10353.7
31218.5
45373.1
15533.3
1696.68
37870.1
73144.7
2908.75
20591.8
32627.1
8261.51
51730.9
54084.1
42188.7
2045.3
28576.6
12936.1
28624.8
22450.5
7024.08
34309
3281.23
72004.9
17719.4
53142.8
8431.31
53061.9
16237
15520.8
23621
15665.4
9842.9
37613.3
26963.3
1999.03
22267.8
51110.4
1856.58
4388.94
37439.8
18188.4
74030.7
56923.2
8163.31
8277.99
8291.79
26336.9
53959.8
4873.4
16393.3
32501.9
9284.62
22918.4
41255.5
30038.6
58660.3
6473.85
51914.7
20790.7
19033.6
39925.2
41593.2
2002.47
9540.44
1762.77
34675.7
2147.17
13238.4
1551.98
29264.6
22408.9
2919.23
27363
30195.2
30627.6
41384.3
1109.13
36786.7
2664.05
3284.97
7377.52
4933.08
49468.7
24732.6
50546.9
67209.5
9609.33
51863.7
55190.7
18734.9
29109.9
55236
49749.2
4485.61
71471.4
2382.92
4423.54
20341
14916.2
22480.9
48449.3
20650.6
28992.8
26953.4
22076.6
21604.2
18793.8
19293.3
12240.2
9638.15
22810.2
8123.61
25216.3
8673.89
21971.2
57643.7
1792.2
12815.2
35908.3
15897.4
72218.3
30084.1
39757.2
44424.7
13467.5
1013.92
838.701
11403.1
77932.9
14349.7
48871.9
19877
41354.2
21300.6
28644.9
15643.3
14957.2
29043.5
53566.3
18154.6
6784.73
37705.3
4832.99
14704.2
51926.1
1479.62
68308.3
69981.6
39011.4
31727.8
53699.5
42743.3
19973.9
48528.6
8643.72
1489.63
9043.85
34952.2
28564.8
3065.01
69302.2
29782.2
1583.28
2617.44
44475.5
32089.2
8074.37
2512.38
22323.1
51552.1
12147.2
16531
15617
5001.46
8133.41
23210.6
23129.2
23231.1
46611.8
13832.1
1376.39
5216.21
21193.9
29500.7
27542.8
13508.1
28948
20525.8
50072.8
1456.92
9208.66
3808.16
1491.69
44871.4
16401.7
35445.9
57445.7
10091
23430.5
9634.9
68054
43691
17540.9
31755.3
41676
26537
1674.26
6175.12
22556.3
20310.1
9794.29
35870.7
18653
2880.79
15403.7
7273.63
10429.3
586.469
1577.92
17627.4
15905.8
33747.6
2879.36
45294.3
27980.1
1511.32
15244.5
69309.3
17226.7
7337.51
57162.7
32838.3
944.118
4423.98
32544.2
52509.8
38039.7
1494.93
49491.2
55357
28316.5
9240.76
1766.73
70190.5
21576.2
21467.4
71916.6
12898.8
27376.5
17493.8
21776.9
8775.57
1856.26
22907.3
13280.6
22681.6
13676.1
27650.2
2033.77
18933.3
3290.52
78865
51973.7
50030.4
21642.7
20922
986.189
52588.7
73638
31585.1
25496.1
1380.67
53561
15902.8
34495.2
29782.9
69794.6
38155.2
291.916
57775.7
17534.8
4609.6
37562.2
39320.2
51266
2361.58
60469
15800.5
14244.4
5948.39
51922.6
74811.6
8761.79
52336.7
63840.7
15063.5
21074.2
3140.16
32645.1
12913.5
18562.7
21382
28110.5
57137
49659.6
16990.5
47750
72955.8
24505.1
28433.6
44969.3
15822.5
57670.1
1557.3
2611.15
38664.4
920.614
6826.98
2682.88
17151.6
21187.9
69334.7
23135.1
48480.8
2972.83
23187.3
817.314
788.716
32780.1
38066
7080.51
74503
14439.6
1362.32
29299.2
66250
1517.12
39115.8
1043.74
14475.6
68808.5
28654
14970.2
21873.4
30301.6
24801.5
2021.76
39646.8
783.305
9728.2
939.793
60855.3
22639.2
4673.6
41845.2
48951
11916.1
49106.8
2519.8
2822.94
73516.9
4520.7
8363.44
32053.7
1003.92
4333.46
19307.6
25035.8
1437.87
30242.9
15971.1
29581.1
20239.1
15566
60378.5
19621.4
30172.9
72316.4
5085.59
50495.4
41822
17803.1
59803.8
19036.6
30124.7
38557.6
975.588
50111.2
31469.6
22724.2
9250.96
1879.67
40563.3
11991.5
22826.1
63528.9
17151.8
75611.1
29635.3
64001.3
35205.4
63963.3
16173.7
28745.1
44585.5
65836.2
15098
73451.4
32783
27157.8
33000.6
52126
16281.8
15929.9
22282.3
50999.7
2295.15
15413.7
51406.5
15096.9
30484.7
49275.1
21265.5
31622.4
52085.8
30075.2
7513.45
39879.7
7742.16
46005.1
43078.7
53127.2
7792.55
34505.9
974.933
7281.14
73164.7
15085.9
52107.6
52764.9
49038.7
14911.1
1468.56
44490.4
44316.8
26770.6
48391.8
17566.4
2444.28
3449.58
2639.9
68672.6
47243.8
4108.33
9915.79
14621.2
18963.4
41293.3
77601.7
48223.2
2947.3
6250.12
19511.3
988.421
19997.2
7207.16
7209.76
49389
1283.93
1832.14
4454.32
72934.9
4473.86
39784.9
32682.9
23158
32546.9
30634
1459.05
39909.8
20305.8
29033.7
62109.4
52125.8
36406.4
18139.5
30718.2
23381.9
52826.5
28626.7
6949.15
21272.2
13945.3
58869.7
20751.3
30274.3
5177.33
40387.5
44448.6
1556.77
61621.1
10080.1
7345.77
15014.1
18720.1
2147.24
15108.9
34133.8
19784.9
11521.3
11608.1
64253.7
16668.8
22068.8
1401.76
64569.6
5489.38
18037.4
15127.3
20911.8
16410.8
16024.8
14460.9
20709.5
69520.2
45277.7
23438
19840
29873.3
60194.5
29165.1
52122.1
16419.6
14410
1981.56
2552.87
38147.1
30468.9
27702.2
34569.7
2629.24
41177.5
19904.4
2616.66
54035.4
34044.1
14852.1
11953.8
34225.4
16183.4
29882.4
19947.3
13819.2
30293.6
37741.5
7133.36
56909.6
45438.6
71391.2
7857.91
45425.7
20053
26778.9
17467.3
55680.4
6766.61
11683.4
43711.9
4847.73
31430.8
23279.7
7082.31
8300.27
25455.4
8833.55
20444.5
45380.2
37246.5
21506.5
2079.26
50431.2
32785.6
28017.5
41373.7
20022.7
17700.3
58113.6
19618.8
28348
6643.46
28704
902.916
15429.4
3372.64
6814.63
985.759
31303.1
6380.17
20747.7
2513.55
29054.9
38923.5
22980.6
13930.4
4319.92
5882.62
20076.2
28805.1
70483.8
1983.55
25023.7
39677.1
49543.2
19768.6
8934.63
45772.6
30526.7
48239
17382.7
4697.18
18142.8
43853.3
75871
1124.25
62181.2
79.0494
47.5259
6104.65
48830
18586
17216.5
49815.7
20225.6
20946.5
38843.9
53912.9
2000.76
5191.63
17325.4
2744.76
19489.7
37115.8
18099.5
18298.9
2888.78
34997
1830.44
27157.5
33707.7
74070.3
49651.7
1302.69
3166.98
46875.7
13027.9
62769
2024.93
30925.8
48514.8
12234.6
29529.4
51774.8
54941.2
40068.2
10371.3
2550.73
46715.5
9010.23
39737.8
11744.7
60008.1
29374.5
9398.11
50390
1566
209.386
38562
30833.3
17295.2
22677.7
25099.8
42846
72996.2
32864.6
1709.45
56998.9
82.7716
1383.26
1623
32771.8
25328.9
22104.4
2627.8
18061.1
12246.5
1603.31
27968.9
7231.16
30652.4
18353.2
22950.4
9861.76
34926.4
18474.1
64892.5
1434.76
71806.9
2746.61
15854.5
1271.59
6220.41
65263.6
777.486
13176.9
5382.77
12586.3
52107.1
68796.9
1703.99
55278.4
9488.91
2453.58
7074.2
56732.5
12062.8
24519.7
16627.5
20609
39741.2
36459
56541.6
28181.2
37636.1
76699
30933.9
14340.8
4628.86
14508.9
15803
62698.7
6357.47
36471.6
50862.7
624.318
6670.43
23291.3
47001.4
70335.7
1147.85
52703.3
30485.8
1091.5
40784.8
24624
6817.6
2896.24
12703.7
5430.3
16491.6
2794.06
9929.93
30814.3
29285.2
14630.2
2821.38
33567.3
29839.4
17421.3
34561.4
16833.6
5943.49
39955.5
13399.3
17413.6
24409.7
17121.6
48524.1
12413.5
6344.75
34678.8
31611.6
17469.6
2057.33
5235.05
52172.1
9087.1
11608.8
55153.1
2880.61
32876.8
55840.5
5576.92
68257.7
2574.97
53155.2
30407.3
15290.1
23186.9
65082.6
870.916
4947.82
52195.3
32268.2
24231.7
37555.2
1560.94
2034.86
22133.4
5652.7
9191.26
17569.5
6499.38
4299.11
38585.5
6028.4
41405.6
52124.9
15673.9
53052.5
33091.3
51615
62658.1
3541.15
7490.31
7498.6
71295.7
4216.33
24498.2
2458.66
42661.1
27270.7
65125.6
11413.2
16297.1
21964.9
52071.5
1449.44
13958.4
85738.4
2160.24
916.317
35677.2
5602.17
52286.8
3573.68
65338.8
39205.6
17908.3
54441.9
26586.5
6875.14
903.95
73160.9
31862.7
47185.7
5034.94
56126.2
6722.91
9925.4
1244.91
14360.4
30265.1
2936.96
14946.5
3505.19
56254.3
578.438
57215.9
9647.87
26438.4
1740.37
72958.7
948.308
34736.5
48865.9
22255.1
6343.19
69362.3
15927.7
30339.6
18546.7
21560.7
27091.9
7235.18
9473.23
956.26
29940.1
1491
16299.6
40153.1
50214.4
53366.7
29686.5
163.311
32557.3
35431.4
59749.3
36332.4
5978.88
19542.2
19633.1
36578.9
768.018
11997.8
19996.6
18670
43235.6
13494.7
46736.5
1424.61
2923.31
27612.8
21410.9
1940.05
37703.3
11779.2
5683.42
11853.6
2094.3
16541.2
1345.56
42752.1
8790.75
30979.2
5230.03
31492.8
9581.16
18196
32125.9
7500.8
16437.8
26402.1
3422.86
20385.9
16948
31158.5
4555.51
31595
36373.5
37284.7
14540.7
35826.7
11508.6
29848.2
18978.2
16741.4
27365.4
1704.99
5017.37
12286
38970.1
4449.45
24958.9
14708.5
31910.9
11194.2
14032.5
32941.4
7121.42
25784.7
30118.7
35002.7
5168.84
62184.2
54489
29610
72447.1
62063.9
1504.71
7294.9
11072.5
1366.03
7418.89
2556.62
12332.1
10223.4
32605.7
9235.23
13108.2
40550.4
2922.49
34000.3
47970.5
786.395
11437.8
55698.5
2543.09
14931.2
18844.9
15164.1
17486.2
43161.2
56181
9342.09
42585
2622.87
8830.39
4829.12
31400.2
10664.6
3078.06
5009.7
14141.7
4438.95
12529.2
2599.2
71177.1
60021.3
72297.2
43411.8
42629.8
13733.2
23464.6
39586.1
10588
27285.8
7358.19
54967.1
11569.4
5964.32
37032.3
17833.9
13730.6
3074.47
20345.3
17572.5
6599.89
1305.76
72335.8
73495.8
21226.6
11890.1
899.534
42689.7
78435.6
56828.5
12739.1
73262.7
3242.15
12010.2
11955.8
4386.75
41775.1
34616.3
67981.9
4621.54
36106.1
45365.6
36057
8664.34
29960.2
50789.8
13905.7
6118.71
53538.9
51061.1
5513.44
4857.79
2378.95
26198.3
14836.7
25372.4
982.121
1479.45
24224.1
1617.07
21933.1
19649.9
2921.77
12821.3
72166.5
23139.3
15930.7
3509.05
3609.5
11372.9
19694.1
71001.4
65384.1
3853.37
55247.9
11512.5
4236.88
4679.51
1360.22
2037.49
50446.9
7341.64
38995.9
7284.2
39186.1
28082.3
40628.9
41337.5
15479.1
52017.1
1469.8
2152.84
14593.5
2309.54
1437.21
54902.8
23840.6
1286.61
19951
13127.3
69940.9
23837.7
18747.5
1889.86
69214.1
29697.4
2526.02
7784.57
8967.75
39151.2
1522.71
75317.8
6277.75
54243.5
21441.3
34301.9
21132.8
45553.5
2668.74
54144.2
52729.9
34909.5
16589.6
43499.3
65069.6
34272.8
38894.2
48015.2
29477.1
40703.5
31646.5
7045.73
27577.8
61252.6
13604.5
3118.71
36036.1
30807.3
1292.1
2109.54
27734.7
59444
897.533
10918.8
5655.35
31257
6694.48
13468.9
14481.8
12197.3
23215.9
1726.46
52120.3
9174.59
20280.5
18387.6
39138.2
20124.1
28530.2
1335.67
56210.4
37081
10519.1
32465.9
20312.3
833.104
29355.3
21767.7
24098.2
4225.41
18497.2
3384.16
62993
4934.07
1073.71
17450
33029.4
7185.7
56601.9
21892.1
35685.8
19699.6
72474
36180.8
51930.4
26406.8
14273.2
42177.1
7402.54
100.812
14688.7
25959.1
2561.39
1293.51
19388.5
29261.8
42668.3
19221.1
13091.5
24423.2
1588.35
18613.4
41802.3
13507
5059.53
48232.8
48360.5
48535.8
1529.11
17042.4
61171.3
2982.72
6331.5
2982.41
47513.7
20669.9
20632.5
30395.8
65319.1
54750
7428.49
19039.2
518.247
1315.19
8603.05
6658.38
1631.43
8585.43
181.499
17421.5
15976.3
67040.4
19934.1
37753
6405.65
21897.5
57175.2
29973.6
24652.8
29486.9
5031.79
2430.4
3664.27
8942.97
57071.4
29783.2
28584.2
42970.8
7084.83
36457.3
73563.1
37682.6
10167
2083.5
20071.6
22691.4
2817.4
3922.25
3305.77
2953.72
6719.53
52120.2
44340.9
17856.1
39152.5
36879.5
22071.6
16421.8
8994.37
24705.2
54435.5
29686.3
12445.1
23550.7
2368.28
42743.1
1429.2
2236.78
52851.6
1100.52
35566
1418.94
12016.6
52811.8
56861.6
13561
26184.9
16290.8
29572.1
14906.2
9128.73
69859.4
25792.4
17220.6
15745
1233.02
896.964
5668
904.865
2578.13
34195.3
51790.5
24502.7
37187.7
17144.8
10191.7
38766.8
2769.81
44591.9
41038
52039.2
9721.05
22608.4
72830.6
49971.9
33465.1
23140.6
4225.01
13968.9
35099.6
3326.31
51891.7
8676.47
23372.1
2817.42
1594.93
1399.83
17493.2
28679.3
79200.1
23207.4
37561.8
11735.5
288.89
1542.75
12612.6
14861.3
2863.82
73346.9
32140.3
80462.4
43359
72417
20182.5
69252.2
19429.4
1915.21
18398.1
38999
60136.7
17926.8
56521.1
71874
36833.2
73740
74530.8
1558.67
13842.1
14766.1
18687.7
16693.6
972.662
20108.5
58874.5
28830.5
18923.9
1166
39997.8
1876.18
8204.6
26457.4
2069.42
20643.8
45529.9
14051.3
20359.6
46128.2
68525.8
17363.2
16090.7
14941
30812.3
45077.5
15798.2
57801.4
4430.89
21361.8
2908.84
27450.7
3013.89
470.944
46117.7
2162.35
29516.9
822.234
12261.4
5424.55
35606.1
13304.5
6601.38
1456.77
979.484
6387
27849.7
12910
4278.77
29116
4382.05
40557.9
6797.1
61137.3
62346.3
13303.3
37073.5
27837.7
18170.5
306.818
52062.8
4049.58
33906.7
61665.5
13753.7
17282.8
30974.6
56919.3
18816.9
26575
34481.8
52874.4
28510.6
23076
22525.2
58417.9
20848.6
1525.54
38569.7
33583
20115.2
18527.9
32174.4
14494.8
18991.4
22774.8
40880.8
18137.8
22164.5
20737.7
2160.99
3001.16
13749.3
18179.2
56349.1
19464.3
5958.35
17353.6
12446
60989.4
23149.4
20905.8
39677.4
16134.7
35758.8
1520.94
57322.9
15464.6
10998.2
39710.8
49097.7
12389.7
6579.62
53085.3
2155
62242.3
36701.4
12263.7
26298.5
20817.8
14790.7
52125.9
2589.07
10630
65784.1
40834.6
77542.1
82794.5
1434.04
1013.86
54736.5
12357
21827.2
68674.2
28519.6
17267.6
9411.62
26787.5
20857.5
859.428
50913.1
20497.3
12251.6
3521.3
20583.6
8937.63
27005.1
5000.72
17585
52074.8
17536
3327.52
54254.8
44159
15920.1
51756
22886.8
15697.5
21287.3
32174.9
17782.2
13067.1
61752.9
11647.1
14022.6
19210.3
12718.9
40975.8
54889.6
25999.7
2355.95
476.914
21160.1
32627.4
23149.3
52122.4
16963.1
15437.2
39430.6
25130.3
8405.64
27660.9
40117.5
9078.56
72089
7594.86
14912.5
55539.2
23889.1
45876.5
43004.9
34518.6
12245.7
57861
31298.6
6055.65
31503.5
64564.8
33498.9
19979
65219.6
47782.2
15421.9
42317.8
13981.4
14307.7
73360.9
944.265
40713.1
48761.4
57909.6
14819.8
10260.5
6658.17
74170
4232.08
71062
7607.65
11822
18616
17662.4
3382.4
39846.3
20300.1
2754.01
53083.6
30150
26049.3
80356.5
1476.69
12160.8
31103.3
21685.4
32919.3
69256.7
18383.7
66810.5
3601.39
41729.3
5299.51
59755.4
49772
60185.2
12627.9
47638.8
15683.4
25465.6
7991.32
22647.3
2533.31
5584.62
19068.3
23570.4
20486.4
1308.9
30686.4
27643.9
7842.53
13880.1
32436.7
19330.6
1563.95
5020.14
12782.2
38555.6
53656.5
49004.4
1472.63
1334.23
3343.32
71627.7
58878.7
3948.16
14973.4
4437.87
49025.6
2324.65
3795.76
5698.73
1956.3
47927.1
43417.3
4974.28
35562
15104
26327.6
11183.3
22360.6
71884.5
37842.8
57133
12390.2
15468.8
2284.96
18912.3
6259.43
1296.09
59984
8913.52
4145.99
33174.2
947.384
19876.2
5282.85
36583.8
30023.7
8525.94
5552.05
12110.6
28019.5
17137.9
23927.8
31639.6
37363.4
49798.3
52123.2
9340.98
865.937
25698.5
24184.9
10769.9
8642.5
20560.9
20328.3
14360.4
18188.4
2521.12
886.271
18389.2
17248.2
6029.94
68976.9
30238.2
33337.3
26066.2
1401.49
1814.37
9858.13
45243
16601.5
34790.3
20894.7
21733.7
14485.8
21901.8
48430.4
4186.64
50169.6
9163.08
13863.3
73380
59189.2
50783.5
63326.3
31442.3
13671.2
52119.7
20339.9
62856.1
34149.6
3263.75
26852.9
28666.7
25101.5
811.2
30490.9
56973.9
12773.3
55462.4
9652.95
63213.6
32401.4
38885.7
865.55
31746.5
68420.7
18436.1
8303.5
26297
15133.6
4077.18
547.177
12142.4
73191.2
16752.1
54243.8
57683.2
31912.6
15321.2
20376.6
72006.1
18759.5
39936
18154.1
34966.7
23397.9
27603.7
36834.9
28404
9940.58
5807.53
37705
29064.2
66536.3
57376
3729.23
15427.8
38921
2687.27
1296.28
14509.4
46529.9
6356.44
1287.37
50663.9
4437.49
26665.9
38529.6
62984
72934.7
18960.8
2083.9
895.264
44256.3
29799.3
6125.89
17849.7
41920.5
11347.5
18468.3
16933.7
867.558
19281.5
12839
2239.34
20330.1
12219.1
30336.2
5530.6
796.435
767.891
863.848
759.033
836.926
751.735
744.125
770.897
789.915
46487
70641.3
5670.72
1226.17
53796.4
2349.46
52121.8
4378.81
1412.31
35185.8
2013.96
31379.6
2608.9
41493.1
2690.15
48465.9
36417.1
1385.04
8965.53
15210.2
41649.7
30808.4
42409.7
68842.7
30765.8
34527
696.307
26159.3
13753.3
18080.9
47233.8
56720.7
18574.1
5361.48
6557.06
4758.84
1771.3
1325.06
5037.2
33056.9
8242.85
2111.57
16099.4
17081.3
48183.4
24427.1
36049.9
12052.1
6573.85
46690.4
67431.2
30527.3
1146.26
68461.2
1627.37
29046
18774.3
6611.77
17839.9
5885.39
3331.72
31581.1
13586.1
39361.2
31344.8
26290.7
10447.8
1416.1
14179.6
4015.07
49974
45735.8
27377.4
59666.3
6201.19
10762.4
60754.4
57800.7
6357.17
63028.7
34403.5
19766
37181.3
28100.3
22795.6
17304.2
1821.13
38601.2
15324.4
30248.6
48173.6
6493.13
18335.6
69881.5
929.043
2028.95
30289.7
53811.6
69134.3
13580.4
38179.7
52116.5
11700.3
72889.1
15467.9
12087.7
36317.2
2034.4
32296.4
29276.2
36944.4
53121.4
22700.5
11167
9037.45
10527.4
70.0297
29951.9
45041.5
4098.03
2698.06
3658
15633.6
34247.4
59332.1
77741.3
12530.1
24260.6
3240.61
32323.2
16700.5
49178.3
34373
12901.4
34979.9
73986.8
55843.7
32258.4
30740.2
2957.67
24243.8
13135.8
2161.35
16544.4
74419.5
6118.02
46334.2
52109.7
5075.97
13701.3
16655.1
49706.7
9491.94
2606.98
24927.3
8284.69
59852.7
23218.5
35888.5
33368.6
19774.2
21751.8
40813.3
18332.5
38707.1
23422.8
3039.49
40149.9
85707.5
12334.8
9670.14
26919.6
46617.7
44812.8
32464.8
11415
51096.1
6554.71
10054.7
22233.2
27337.3
17291.8
17849
72252.7
71283.1
18568.9
38869.4
62972.3
1786.34
40702.6
124.962
24082.1
2017.95
31958.2
46428.9
57669.5
53944.5
71099.5
14454.8
51058.7
11058.8
57317.2
40511
41230.2
23206.9
38983.3
10563.1
26052.9
12596.8
69171.8
1509.23
2778.78
4098.27
10473.3
50328.4
79918.2
2736.8
3299.81
29796.5
27990.2
1650.01
10752.6
14783.3
14899.1
45119.5
8307.17
53450.3
29998.2
65524.1
12153.2
43690.2
58055.1
36009
34898.1
39866.1
21705.1
51774.6
10847.5
72330.4
17621.1
47900.1
39624.4
59178.6
37769.8
2346.24
2863.65
5302.1
15814.1
11767.8
1475.32
1385.42
29009.9
24421.5
11718.6
19702
31925.3
5354.93
72085.5
33169.5
56097.8
21086.3
24705.1
54940.3
3597.48
10761.4
49423.3
35029.6
12347.8
6915.6
25863.8
2313.39
2714.82
12510.2
33873.3
3902.65
12249.3
52102.7
742.281
17582.7
5350.73
22716.6
18668.1
72097.5
74123
35514.4
3450.94
37772.5
29701.8
16910.4
29320.1
3393.36
61736.2
31676.4
69175.5
6884.39
33924.6
5137.68
1566.48
18110.4
28790.8
42570.9
12428.6
36452.4
36452.7
38108.7
16510.2
36693.5
1474.64
33454.4
50695.4
20387
48020.7
34960
21478.1
5129.7
21021.3
33422.6
10833.8
3350.39
1234.95
17844.2
7202.33
36852.6
50444.4
4000.09
80159.9
2132.33
3242.88
16479.8
43413.3
3632.19
31092.7
26394.6
1757.61
1650.73
45111.3
5299.86
2812.18
13236.9
11899.5
4954.66
25296
51399.5
41351.4
20335.2
24722.1
18122.7
31755.3
70567.5
20963
27214
10626.2
42463.4
20110.2
30114.5
892.442
28190.3
1827.11
2638.99
12627.1
72786.4
26601.6
21806.8
52401
8899.74
17422.8
825.417
7271.39
15837.6
19730.9
654.036
13032.1
5644.67
1635.93
45517.9
1032.64
16751.6
19320
37099.7
1270.46
14150.8
10783.7
56605.2
9448.05
38753.8
60927.8
41826.6
73273.3
2241.18
64426.1
29604.3
973.235
6656.71
6558.66
1853.34
10640.8
1861.24
39940.5
19316.1
25516.8
16686.6
11056.8
17791.8
25767.5
37188.7
47108.3
26682.5
15310.1
1378.47
14204.5
9250.39
73243.3
11561.6
20469.9
30605.9
19385
1344.87
72847.7
1351.94
1605.97
44215.4
5402.5
6424.78
33028.3
22532.5
21233.6
5502.06
2641.43
35322.3
1377.58
36831.2
11251.4
39656.3
1386.63
66820.6
31687.9
14221.6
19806.5
36092.1
283.684
20572.6
1321.08
15105.9
3321.58
34262
22600.2
16134.5
7030.06
16553.4
12934.3
28579.8
60839
20829.7
3677.87
19277.9
48489.9
32018.1
20177.6
14977.9
33361.7
15582.9
3426.67
47868.4
13718
48650.6
13803.1
22993.9
1263.63
29917.6
1529.33
9038.73
10553.1
59845.3
40123.1
5947.95
41262.3
14835.1
34818
10956.9
78335.8
2697.57
16173.9
13824.7
37661.9
77702.1
5261.5
51875.7
69936.7
20500.5
61779.8
2098.96
518.739
17084.4
2046.75
40039.2
38695.4
14506.6
51244.5
43310.6
2402
35433.8
27699.1
21698.7
19364
26470
13344.3
23191.5
32945.7
15169.1
2757.43
7220.18
14539.8
61627.1
9970.86
15030.5
5197.76
20084.4
32580.9
31360.7
15194.7
27598.4
2686.77
253.596
68716.7
1468.91
138.861
2907.02
9754.98
6943.87
47646.4
68502
35544.3
27552
10038.2
62051.9
1785.05
15076.1
67272.2
52343.7
15647.6
2293.9
72121
6492.26
1243.04
16176.6
24018.6
21878.8
73120
23783.6
17461.9
40164.1
945.896
37394.2
10611.7
2377.59
1329.82
1792.08
13298.3
27533.8
18074.6
50845.4
3507.12
2924.77
21342.3
7513.68
1748.45
64891.8
60951.7
62682.4
21618.6
39580.9
2842.26
773.747
23933.5
26550.7
15995.7
1384.25
1729.2
36188.3
63176.8
60061.4
15959.9
24245.7
73704.2
38697
10187.8
19167.4
1420.58
15786.3
34400.8
24280.9
12566.7
37343.5
35592.1
34750.1
910.015
1354.22
2604.03
22682.9
12028.1
18153.6
23954.3
1061.36
5379.68
33339.3
20557.6
879.984
29475.8
29825.1
43352.8
5183.44
15016
14132.2
2787.26
15185.5
42336.9
1532.42
21487.8
1872.79
42471.4
496.534
25637.4
80718.4
927.819
23615.9
28967.4
24837.6
1803.36
5271.61
2293.68
32033.5
35266.7
17270.2
20368.8
24900.2
739.196
43729.3
17502.3
32873.2
14151.7
7912.93
35339.8
25603.7
3832.57
1205.4
37712.6
4686.51
9314.64
4118.19
1524.17
22753.4
30552.4
30813.5
15800.2
27205.2
27374.3
5393.74
3035.97
9359.37
24448.8
57178.6
19969.5
40249.4
67158.8
6290.03
14938.9
41421.7
46213.9
20111.1
17676.5
4230.16
12319.9
26071.5
8653.06
17590.7
27094.6
29540.5
21539.7
38732.5
16238.4
1550.71
20109.7
29617.9
2276.5
18810.1
19099.9
6294.23
67253.7
16827.9
20831.5
71115.1
29389.8
24406.2
23395.1
3301.1
72552.1
71358.5
36596.5
6161.53
26820.1
1287.1
37049.5
4437.63
2091.97
2630.1
2594.36
53333.9
30755.6
36621.9
28348.7
46030.8
23163
42541
56890.5
67637.9
66792.2
44546.9
79133.7
1443.79
2436.25
17232.7
27739.6
10457.6
986.876
63528
14909.9
63036.5
18950.4
22373.9
21526.8
3805.79
10923.2
1463.02
32541.7
14471.8
18905.9
42362.5
47872.7
28899.4
1844.34
25174.8
1373.61
77283.8
17182.3
836.487
5347.2
38924.5
23313.4
14545.2
802.057
1180.39
50066.1
58063
17740.6
27815.4
18725.2
12734.3
2256.19
4872.18
15659.6
27595.8
15900.6
42318.4
37145.5
20069.2
37767.4
7992.35
63853.2
65840.8
18004.1
42412.5
14633.7
34981.2
1917.77
5962.24
52076.8
11007.8
27071.8
14668.8
18581.3
2757.09
10399
60650.7
16479.4
25700.9
20073.2
51561.5
4633.21
30700.9
14509.8
17163.6
53891.3
1208.42
64693.9
81573.8
64523
4706.09
29776.8
2558
14869.6
10444.7
23720.7
13602.1
18216.7
9261.63
39325.5
2205.89
42897.9
53187.9
30156.1
16173.8
34381.8
18229
15491.2
1739.93
49690.1
1407.07
11188.6
5038.08
20161.3
2528.76
3993.89
22219.1
1540.05
52994
2757.52
41183.6
2495.31
2220.01
13881.3
26374.8
89.4503
16304.9
24853.7
11280.3
20167.8
1232.99
12836.9
5682.86
14852.7
27468.7
69630.2
24063.7
27919.6
11015.3
71151.7
4181.02
37570.7
62293.1
37472.3
2672.58
8324.54
3566.63
33475.3
7715.59
60616
5175.4
12991.1
7388.46
6177.29
31350.1
18370.7
60965
33875.7
19846.8
1844.19
31659.6
52202
31779.7
1240.02
31704.5
23818.7
4868.07
63686.1
38855.1
28221
21349.8
37992.8
83089.1
2683.62
27309.8
3568.84
50.2301
4396.08
37343.3
11512.8
9150.46
21406.4
21784.1
21594.4
42140.5
58034.8
22280.9
52118.4
1326.83
18984.7
40534.7
2970.28
19476.5
4298.17
85581.7
5015.61
8622.55
21013.8
36407.9
7428.98
22048.7
1267.47
46259.3
1431.5
62447.3
24980.6
15934.6
4838.69
26890.8
5649.55
33669.9
36020.7
138.366
20898.8
22082.3
15408.7
14693.7
14016.4
15662.5
13049.5
7081.55
72938.9
1252.91
21143.7
33989.3
42431.2
2061.98
50291.6
19005.4
853.466
1292.56
1345.1
30922.9
83369.2
60076.7
9911.53
47429
4599.62
19858.4
29551.9
5783
41497.2
51682.6
6740.42
846.775
28470
14799.6
52120
1411.09
37064.7
24782.9
26959
33243.7
24726.4
10948.9
3969.34
72058
24471.6
3944.02
27275.2
12688.3
5017.1
11819
5109.04
14562.7
25935.3
19072.8
5204.86
6873.78
33787.7
74699.1
31293.7
45620.2
2703.14
28961
9499.95
3840.57
26582.4
3771.84
27116.4
5684.21
63265.4
28203.1
15056.7
14074.8
15398.6
31694.2
1188.53
19839.2
68523.3
6910.2
14561.1
44794.2
43338.3
68248.6
5512.28
13428.8
27209.7
28590.2
17054
43316.9
18309
15609
39418.1
44287.2
24565
13239.2
38585.2
21622.5
38008.1
14200.6
36261.5
6196.97
2219.44
48304.7
55644.6
18960.2
8224.38
13667.2
36806.6
9858.01
22748.4
784.4
31821.3
25240.8
15074.8
67998.6
5425.33
26495.8
48505.5
5639.52
10749.1
33537.7
8879.75
12085
40495.1
42516.7
21123.2
50089.6
21352.4
57593.6
37669
42599.6
1316.65
37330.6
22406.3
49955
19736.4
69248.2
2734.24
3508.46
1317.76
79688
1645.45
58886.8
6731.24
13474.8
2192.15
11766.3
34004
5701.67
3772.14
2127.3
6452.04
25392.2
1837.42
36913.4
22060.8
46775.9
17267.3
1395.29
59436.7
17665.6
21499.9
27741.8
28947.5
1301.22
2999.71
33968.9
920.754
11226
23863.8
39710.2
41224
19521.1
16524.4
1150.39
1680.63
33468.4
11298.7
1249.84
71373
5802.59
33159.9
1250.54
29432.9
17800.4
39627.9
10628.9
1858.8
10614.4
18540.1
41206.4
17217.9
35495.8
23899.4
4852.16
18745.2
5361.06
1162.54
23235.9
10279.2
11766
84067.2
44266.5
19906.4
43594.6
73968.2
1511.73
15101.3
25916.7
15698.5
38661.3
31870.4
34520.4
38651.5
9737.87
36412.3
13882.8
880.605
1820.23
26853.3
6669.52
5918.03
31876.2
53783.4
34741.2
33199.8
26178
18739.8
43102.9
27553.2
61232.3
22624.3
60514.4
3236.19
1208.77
30113.8
35741.2
5890.18
20576.5
22782.6
42741.1
28757.7
13487.6
29572
20021.8
5284.94
17402.7
46421.8
11213.4
35966.3
1441.18
1896.25
19188.7
3340.91
24088.5
40239.9
25099.1
70962.6
20111.8
9888.01
24781.8
42009.7
12202.8
28915.9
50748.5
14637.5
18066.7
1925.68
11701.8
22637.9
22930.2
2246.8
42245.6
31235.2
47849.1
24906.1
5394.48
5933.13
51982.1
50745.9
37399.4
2864.01
7278.08
15590.4
10717.1
62476.4
22140.6
31002.3
21184.2
1268.28
26685.3
19713.4
28029.3
28931.8
19154.3
39193.3
23146.5
6366.92
17460.7
41923.8
65800.9
33846.2
22897
61050.8
20775.8
68324.1
51749.4
30732.1
1573.4
21800
2437.14
41885.6
67435.8
34219.2
24436.2
3514.02
12103.9
38633.7
63839.3
11293.6
61824.1
35253.7
34266.9
39255.9
11348.1
45206.1
3563.38
39309
77047.7
5927.73
930.589
28181.8
44825.6
3759.64
19699.8
8057.42
48039.7
37890.8
947.014
8175.1
1349.27
24215.5
53061.7
66867.8
10306
29769.3
67348.1
31885.2
80902.1
17785.6
25215.3
15556.8
29956
28834.6
8099.82
5034.4
29687.6
63040.4
11387.3
30198.4
3543.34
20678.7
63339.2
1473.36
6455.44
61006.2
29487.8
33724.5
14700.8
14396.6
8939.86
32324.4
9057.51
62636.5
3414.97
11368.6
34643.8
11105.5
67746.5
45995.4
24760.5
6961.75
23646.4
24659.9
27211.2
40231.8
10057.3
28460.6
25249.3
51757.7
63115.2
14223.8
5500.48
63679.5
7167.89
24557.8
1386.11
6724.04
26326.2
68245.2
52005.3
18103.7
68747.4
14290.2
44397.2
1717.73
48679.6
74099.2
9152.7
23508
13537.5
17034.2
50126.2
51454.1
2833.25
35172.6
55297.7
5530.26
26973.4
44152.5
18930.7
40754.2
18792.5
30742.5
783.705
729.225
788.878
784.75
764.813
513.187
777.071
595.928
781.551
18961.4
3021.86
63431.1
27154.3
2538.46
69462.9
14007.4
45835.4
18565.4
30579.9
55376.9
33970.8
19426.5
26394.1
3160.89
69108
2355.36
12871.1
32196.8
50709.3
41384.6
5587.51
17992.8
28245.3
44791.9
51683.3
28748.2
56001.7
25465.3
14439.8
37423.5
961.344
3445.91
65384.3
31744.2
2366.44
38013.2
1976.87
2574.19
2431.52
2250.67
1980.6
29051.3
33010.1
62101.8
31663.9
28906.1
47330.1
29858.8
1169.01
14019.6
34697.1
64968
808.379
1302.51
59986.9
55121.9
1489.99
11881.1
61955.4
5669.84
64179.1
18283.5
19988.8
1202.92
30544.9
25401.7
3398.2
9870.83
5764.87
42521.8
23845.2
1234.35
2809.65
34856.9
51958.6
31014.3
19701.6
28478.1
19253.3
36569.1
21731.4
32592.3
4320.54
37491.3
49607.6
16863.4
33939.6
34360.3
35668.5
30000.6
1301.65
32727.6
19451.7
18754.1
33509.5
22480.7
26850.7
40558.3
24350.3
64066.1
25176
73900.9
16956.6
63180.7
26715.6
58894.1
19553.1
72216.8
1515.21
9473.42
15285.6
69589.2
5130.13
72901.4
3676.4
819.55
41794.2
48537.9
39699.5
11942.4
21228.5
1287.72
19389.3
27782.1
1381.85
79035.8
25958.1
32343.6
20808.1
71570.9
3118.02
14907.2
16387.5
2801.26
23110.1
27385.7
71728.6
32490.9
9840.87
63596
29320.9
21527.4
82006
32055.4
39463.8
1308.55
8900.25
25130.5
4995.73
45220.7
16134.8
47479.3
33359.8
32805.6
56356
21143
1190.65
2481.16
1610.72
18875.3
29028
29948.1
70954.3
23034.4
52305
23568.2
23283.8
57684.6
14419.2
21155.8
45885.7
31109.2
49592.5
70524.1
22552.5
8112.69
35810.2
15684
11269.1
4304.37
28051.1
26318.5
16032.8
31730.2
40410.8
69654.8
22209.9
56345.1
39341.2
20572.5
41903.4
20432.6
28521
24296.8
13693.5
1326.87
70247.3
21458.5
44603.8
35761
4163
13147
15738.8
6303.55
35024.1
38975.8
18985
55822.4
71232.7
32664.5
29722.8
1202.42
22540.6
66063.3
4961.1
5444.44
14148.3
11200.2
72775.4
15063
2179.67
26269.6
5669.75
26643.4
83990.6
3868.15
72939.7
3147.18
25285.1
17623.4
61207.1
24411.6
24142.2
34465.6
38881.6
35466.3
25321.8
18540.8
20544.8
69910.3
24815.9
1462
18509.4
13221.9
68081.7
62440.8
38748.4
73999.2
7454.07
23265.3
17265.1
13203.7
8247.9
1944.19
62969.2
36994.7
2508
32280.3
13633.9
27392
75843.8
36344.4
33323.2
2926.54
2563.87
2281.58
6264.81
2754.37
1646.23
35563
3230.37
66380.2
72798.6
51203.2
33330
67272.2
27939.6
46888.3
24967.1
22775.4
47547
5216.22
24461.9
34075.5
63383.1
3658.11
55677.6
2700.4
40830.3
3997.39
15398.8
42450.2
4721.04
36497.9
36057.7
10011.6
1364.34
44953.8
58266
6772.89
48338
46215.4
32734
19796
20155.5
34631.6
37591.8
65190.2
18096.8
38329.4
8153.4
24115.7
38422.5
21008.1
64612.3
32751.2
12675.9
39174.3
1448.08
23793
16289.2
13930.7
5506.14
3173.56
22944.2
17852.7
23279.4
9007.02
3602.48
64754.4
68875.1
30230.9
65171.3
72223.6
32925.9
7811.53
44498.4
19671.9
15368
10093.6
53061.6
58546.4
50750.5
12230.6
2264.81
4063.01
28497.2
68684.1
2512.48
63324.6
986.207
51394.1
34736.6
2822.12
3132.2
19490.3
4785.86
71824.9
44314.1
71430
34176.7
43435.9
19686.5
32006.9
42077
57422.1
11881.1
1694.76
35551.2
2591.03
16007
17120
29478.4
28093.6
68502.3
52088.3
60216.5
24450.7
1278.65
11529.1
69951.4
61351.7
6965.5
19212.3
14351.2
36631.6
41092.3
12615
14265.1
23354.2
70081
36696.2
35644
10030.9
33689.5
73237.9
3829.48
19243.8
27250.6
31585.2
45286
38323.7
59095
9062.81
8860.07
60836.6
30117.2
5947.46
73311
70927.7
3324
23922.1
29885.1
52079.2
11385.4
21219
71789.2
26547.5
62925.3
12850.2
15259.5
16025.1
26364.7
1278.51
37937.6
34934.9
9736.19
2534.42
41819
20878.4
8257.09
22389.3
25789.9
10127.3
2025.78
22094.6
4448.73
31404.6
28604.7
1378.92
45127
15915.7
29705.6
10817.5
63327.9
23159.4
3513.88
20969.3
30835.1
18496.8
63441.3
3466.26
4731.27
39288.1
40145.5
27924.1
26265.7
40574.6
68177.5
40881.7
12042.4
62661.3
14987.1
33523.7
7953.88
11713.8
10358.9
52614.8
71450.7
27821
27507
12216.7
39082
62858
72505.5
4606.63
52124.8
4214.28
39539.5
30323.9
5163.7
77946.5
66800.8
53211.2
816.123
755.285
719.982
766.289
285.069
770.655
733.42
784.296
808.008
782.475
361.576
769.133
764.187
769.43
70646.3
33099.1
58287
18527
44628.8
5548.76
5286.94
1565.53
23473.6
8977.24
52079.2
50606
7337.22
9885.73
28608.7
12394.1
29660.3
69254.4
65076.7
42272.9
63309.5
1263.62
49678
34108.9
18664.8
45474.4
41275.4
38091.6
10598.3
66957.2
4304.68
11210.2
5064.5
17560.4
3446.26
51725.7
27339.7
57260.9
70186.7
23653.8
11468.4
25505.9
18990
13528.5
43352.4