/*--------------------------------*- C++ -*----------------------------------*\
  =========                 |
  \\      /  F ield         | OpenFOAM: The Open Source CFD Toolbox
   \\    /   O peration     | Website:  https://openfoam.org
    \\  /    A nd           | Version:  8
     \\/     M anipulation  |
\*---------------------------------------------------------------------------*/
FoamFile
{
    version     2.0;
    format      ascii;
    class       volScalarField;
    location    "5e-05";
    object      nut;
}
// * * * * * * * * * * * * * * * * * * * * * * * * * * * * * * * * * * * * * //

dimensions      [0 2 -1 0 0 0 0];

internalField   nonuniform List<scalar> 
23640
(
0.00143011
0.00467695
5.86472e-05
0.025043
0.00537116
0.00147285
0.00444036
0.00251295
0.00731427
0.00065559
0.0089369
0.00581939
0.00304403
0.00487725
0.000883565
0.00109563
0.00100025
0.00503961
0.00960929
0.00611183
0.00616704
2.39717e-05
0.00657585
0.000744694
0.00460112
0.0049281
0.00980727
0.00775863
0.000871718
0.00309554
0.00262905
0.240774
0.0057655
0.00647235
0.0040659
0.000808378
0.0010383
0.0016633
0.000234662
0.00114951
0.00583968
0.0069811
0.00519476
0.000252437
0.0530585
0.00616232
0.00140817
0.0051408
0.000660617
0.00225191
1.13568
0.00889789
0.000745047
0.00133881
0.0265033
5.34449e-05
0.00261698
0.00611066
0.00345058
0.0229242
0.00260877
0.00837465
0.00920816
0.00956207
0.0036449
0.00935344
0.00156559
0.00479753
0.000720547
0.00511564
0.00119108
0.00643898
0.00429397
0.00118458
0.00166054
0.0646412
4.01543e-07
0.003045
0.00956324
0.00956424
0.00608938
0.004133
0.00362977
0.0036828
0.00361371
0.000247456
0.00860531
8.29449e-05
0.000913455
0.000907329
0.00386885
0.00606814
0.00193917
0.00599642
0.010591
0.00360886
0.00971393
0.000171339
0.00403351
0.00146574
0.00240135
0.00133616
0.00029685
0.00120626
0.00376579
0.00155772
0.00301579
0.00109696
0.00648521
0.00477029
0.00243419
0.0045935
0.00651045
0.00571344
0.000462985
0.000845865
0.000846647
0.00233404
0.00129104
0.00323001
4.96018e-05
0.244661
0.000208374
0.272224
0.00777982
0.000648803
1.47853
0.00222838
0.00147754
0.00567301
0.00847688
0.00387095
0.00300867
0.00884525
0.00144784
5.58107e-05
0.00669847
0.0048007
0.00904956
0.009561
0.00437481
0.0025966
0.00391865
0.00915088
0.00195025
0.00491999
0.00783447
0.00213888
0.00393542
0.000644032
0.00203441
0.00104427
0.00370574
0.0161113
0.00690403
0.00138611
0.00445015
0.00702656
0.00158758
0.00977425
0.000841512
0.0005704
0.000800689
0.00126551
0.000858764
0.000732924
0.00206212
0.00361254
0.00363545
0.00385621
0.00503599
0.00047214
0.00165248
0.00643831
0.00636925
0.00524129
0.00565106
0.000742532
0.00958319
0.00293272
0.0531419
1.44766e-05
0.00477735
0.00795674
0.00082371
0.00812978
0.00891589
0.00231958
0.0147575
0.00789759
0.00555461
0.00753433
0.180413
0.0036955
0.00102838
0.000635661
0.00367318
0.00140965
7.38937e-06
0.00577471
0.00954603
0.0002989
0.00182361
0.00684076
0.00844227
0.00371578
4.87252e-06
0.00618632
0.000971453
0.0026171
0.00531557
0.00483473
0.00204865
0.00365912
0.000942257
0.00515868
0.0053322
0.00622254
0.00212732
0.000426738
0.00216775
0.00822925
0.00948157
0.00594825
0.00100933
0.00643483
0.00553582
0.247419
0.000360182
0.00385692
0.00158792
0.000998164
0.00647988
0.0049068
0.00699916
0.00431855
0.00129543
0.00513991
0.00394286
0.00364152
0.00257318
0.000133197
0.00589478
0.00640511
0.0229039
0.00115081
0.00155995
0.000146356
0.0128561
0.000544458
0.0270496
0.00520282
0.00139625
0.0060475
0.00348592
0.00118768
0.000115828
0.00107493
0.00610487
0.00425348
0.0369009
0.00224783
0.00314352
0.00639551
0.000719175
0.00515306
0.00894793
0.00355062
0.00347833
0.0087267
0.00166551
0.000693042
3.08038e-05
0.0174317
0.00186077
0.00677283
0.000830038
0.236693
0.0107398
0.00645707
0.000573638
0.000693921
0.00763271
0.00947853
0.00315622
0.00769178
0.00262019
0.00121623
0.00513415
0.00947721
0.00415597
0.00109729
0.00518182
0.00194155
0.00901829
0.0039891
0.00566701
0.0012112
0.00526065
0.00105534
0.0036053
0.00954135
0.283362
0.00575763
0.00661657
0.000717086
0.00415109
0.00678174
0.0324919
0.00345192
0.000984542
0.00260495
0.006453
0.00800805
0.00919977
0.00900801
0.00239095
6.59375e-05
0.0106131
0.00198533
0.00117863
0.00666224
0.00394275
0.0077605
0.00140112
0.00237956
0.000582393
0.00403821
0.00122506
0.669416
0.00696644
0.00267012
0.00786779
0.00873775
0.00465167
0.00563574
8.07368e-06
0.00188604
0.0037317
0.00521831
0.000134269
0.00277534
0.00683459
0.21116
0.00496784
0.00502178
0.00808374
0.00561581
0.0063876
0.00670391
0.00421311
0.00222951
0.00102457
0.00230248
0.00401898
0.000779996
0.00166949
0.00203196
0.00839475
0.00837308
0.00900675
0.00787152
0.00938277
0.000950239
0.00517445
0.000465916
0.000607002
0.00137811
0.00987068
0.00322062
0.0020169
0.000263159
0.000965744
0.00917729
0.00774459
0.000998668
0.0172949
0.00031815
0.00406821
0.00916562
0.00493227
0.000284549
0.00512913
0.00334406
0.00522608
0.00134042
0.00131805
0.000703448
0.000841293
0.000620609
0.00921072
0.0011673
4.34448e-06
0.000768507
0.00334986
0.00108547
0.209018
0.00175223
0.0013591
0.00730715
0.000561437
0.000485671
0.00264818
0.00072197
0.00298676
0.00536567
0.0144283
0.000911164
0.000921783
0.00165223
0.00146409
0.012686
0.0055294
0.00730463
0.00823282
0.00582261
0.0075787
0.00331545
0.0053146
0.00666401
0.00633024
0.00892488
0.00524865
0.00143701
0.000800997
0.000737367
0.226441
0.000299941
0.00771439
0.00173438
0.000835608
0.063835
0.00242225
0.00606286
0.00917977
0.00518967
0.00221222
0.000656114
0.00256152
0.0109041
0.00866458
0.00707109
0.000361913
0.00106218
0.00917238
0.00209906
0.00758778
0.00143896
0.00940227
0.0013786
141.392
0.00161322
0.00668302
0.00120107
0.00354684
0.00143748
0.00486948
0.00411257
0.00357829
0.000875081
0.00535615
0.00318063
0.00640288
20.4452
0.000863017
0.00329904
0.000992172
1.43193e-05
0.00214974
0.00552527
0.00839457
0.00368695
0.0399019
0.000361492
0.00114321
0.00759617
0.00485791
4.50389
0.00260999
0.0425231
0.00270129
0.000736491
0.00784223
0.00106773
0.000888585
0.000819601
0.00306622
0.000505862
0.00265224
0.00143659
0.00937774
0.0252624
0.00280166
0.00049999
0.00423287
0.00531752
0.00201095
0.00641168
0.00066464
0.00211389
0.00357986
0.0104424
0.000739616
0.00530702
0.0037984
0.00349794
0.00336134
0.000927833
0.00108442
0.00303062
0.00675614
0.00119131
0.000681232
0.000349831
0.0059279
0.00674902
0.0063307
0.000976348
0.00616833
0.00920428
0.00139
0.00880711
219.008
0.000757251
0.00536921
0.00655186
0.00522592
0.00606736
0.00508089
0.00341486
0.00563892
0.00117194
0.00323348
0.000568554
0.000169795
0.00334925
0.000744923
0.00311728
0.00108647
0.00689956
0.00110577
0.003798
0.00421485
0.00521471
0.00124231
0.00514009
0.000750105
0.00168376
0.00415728
0.00426552
0.00297419
0.00493943
9.17246e-05
0.000411798
0.00257773
0.00313828
0.00527112
0.000104376
0.00705968
0.00738336
0.00157639
0.00326669
0.00544649
0.00569534
0.00944621
0.00647055
0.00184175
0.00824456
0.00101745
0.000671491
97.9791
0.00511441
0.00419511
0.0015622
0.00224854
0.00979765
0.000304236
0.000265838
0.00271647
0.00125674
0.0695683
0.00605719
0.00203372
0.00610146
0.00804301
0.00081656
0.00151255
0.0027096
0.00487988
0.00839024
0.0123773
0.00464273
0.00568901
0.005932
0.00349105
0.0105415
0.00637635
0.00855986
0.00369378
0.00201613
0.00855379
0.009398
0.00552425
0.00278686
0.00320274
8.34218e-05
0.00264543
0.00108213
0.00666374
0.00502723
0.00320594
0.00205418
0.00581087
0.0034874
0.00142351
0.00292332
0.000284073
0.00511258
0.00120903
0.22864
0.00860767
0.00568525
0.00729524
0.0125673
0.00513564
0.010004
0.00506562
0.00900073
0.00356128
0.000373625
0.000556932
0.00293035
0.000358483
0.00290689
0.000456346
0.0311763
0.00359152
0.00517566
0.00172248
0.000658739
0.00606878
0.000184478
0.00295119
0.00301517
2.08967e-05
0.00607849
0.00902125
0.00818162
0.00130359
0.00565885
0.00151528
0.186656
0.00143899
0.00379426
0.00624264
0.00764387
0.000685963
0.00306152
0.00306746
0.00166972
0.00775102
0.00582093
0.000879425
0.0022289
8.92045e-07
4.88455e-07
0.00123789
0.139867
0.0014219
0.00209189
0.24212
0.0045655
0.00559632
0.00141062
0.0107192
0.00115118
0.00335125
0.00508974
0.00152519
0.0105412
0.0252901
0.00592901
0.00529163
0.000413288
0.00698909
0.0012218
0.0195081
0.00555889
0.00559546
0.22857
0.000842375
8.05215e-06
0.00242029
0.0046412
0.00859092
0.000932496
0.00136
0.00640385
0.00138388
0.0064745
0.0619818
0.010753
0.00629603
0.000489627
0.00155277
0.00758608
0.000655572
0.002256
0.00203141
0.00470817
0.00593646
0.000631367
0.000969558
0.000474167
1.1635e-05
0.00069991
0.00178789
0.00511366
0.00580317
0.000325532
0.00365002
0.00768628
0.00178418
0.000638104
0.00715088
1.49884e-05
0.000719726
0.00108543
0.00416942
0.0210707
0.00611258
0.00191661
0.0087578
0.00170963
0.00126067
0.00634861
1.22339e-05
0.00590197
0.00933449
0.00652755
0.00140162
0.00699265
0.00958837
0.00165022
0.00106193
0.00569759
0.00200603
0.000283244
0.000931216
0.00306676
0.00903453
0.000602137
0.00430311
0.00311335
0.00458919
4.72385
0.00958211
0.00116298
0.00858865
0.000946298
0.00219511
0.00346886
0.00351782
0.00494835
0.0152534
0.000116598
0.00940677
0.00690961
0.00623319
0.00716972
0.00127388
0.00703183
0.00591717
0.00655337
0.000750317
0.00306839
0.00434763
0.00559963
0.00998735
2.05157e-05
0.00265085
0.282994
0.000107708
2.24303e-05
0.00020457
0.0226774
0.00811442
0.000937293
0.0077057
0.00656639
0.00040977
0.000881935
0.00252974
0.00362451
0.000581045
0.00151014
0.000270928
0.007204
0.00104069
0.000992282
0.00514783
0.00218727
0.00432811
0.00239043
0.00156685
0.00826103
0.00513956
0.00834095
0.00639389
0.00293906
0.000689807
0.000890677
0.00490691
0.0128055
0.000161537
0.00558963
0.00438995
1.51689e-05
0.000887985
0.00670555
0.00579979
6.48629e-07
1.80902e-05
0.00780538
4.31158e-05
0.00180804
0.00839977
0.00203044
0.00190416
0.00359511
0.00324744
0.00955975
0.00167671
0.0102747
0.0064755
0.00512573
0.00181589
0.00930452
0.000292857
0.0031193
0.00993534
0.00426972
0.00958258
0.0063527
0.0012395
0.00134188
0.0163603
0.00323749
0.000817763
0.00518101
0.00292545
0.00300165
0.00130771
0.0014202
0.010042
105.975
0.00294985
0.00408455
0.00529946
0.00288303
0.00488642
0.00129251
0.00357062
0.000195824
0.00884335
0.00293242
0.00957272
0.001765
0.0811385
0.000491666
0.00242606
0.00185519
0.00718542
0.00773845
1.94476
0.000880297
0.000563576
0.00265238
0.00129714
0.000609513
0.00269981
0.00251971
0.00976643
0.00269833
0.00162841
0.00414408
0.00912929
0.00826857
0.0188513
0.00163279
0.000123106
0.00933577
0.0065801
0.000494767
9.65242e-05
0.00671035
2.25137e-05
0.00110868
0.000242146
0.00117005
0.00933157
4.97294e-06
0.00502345
0.00267869
0.00427778
0.000119018
0.00492721
0.0009991
0.00450423
0.0013811
0.00293087
0.000607232
0.000696501
0.00425396
0.00190925
0.00354188
0.00880645
0.00566274
0.00819108
0.00864793
0.000678496
0.00263441
0.00314771
0.000801786
0.000711491
0.000569011
0.000996367
0.00561447
0.00070711
0.0132505
0.0101474
0.0056958
4.79661e-05
0.00420329
0.0425045
0.0048975
0.000686365
0.00272252
0.00432151
0.0112421
0.000277577
0.000590824
0.000101977
0.0012808
0.0088875
0.00361616
0.00327954
0.00299253
0.000992268
0.0021916
0.00567091
0.00828731
0.00146058
0.000595082
0.00414688
0.00255096
0.00241073
0.000156696
0.00480679
0.00105471
0.00375855
0.00376904
0.00792164
0.0012002
0.00652492
0.00113453
0.00493664
0.01008
0.00349814
0.00489146
0.00931314
0.00128459
0.00777493
0.0055669
0.000365372
0.00307106
0.00481254
0.000587004
0.00626761
0.00483996
0.000269497
0.00397138
0.00652256
0.00502557
0.00498996
0.00472105
0.00035272
0.00288387
0.00163381
0.00980409
0.00132819
0.016503
0.00436838
0.00482092
0.00173005
0.00522946
0.0117331
0.00348668
0.00517888
0.00136691
0.00361885
0.00127232
0.0097835
0.00792216
0.00083713
0.00820857
0.00319196
0.00101133
2.37148e-05
3.60591e-05
0.000640581
0.00385565
0.00176532
0.00438352
0.000583569
0.00263296
0.00162074
0.00450747
0.0062369
1.25661e-06
0.00834063
0.115072
0.000460015
0.00112076
0.00770071
0.000801873
0.00496726
0.00738295
0.000182551
0.00496578
0.00918954
0.00682515
0.00226811
0.00664761
0.00164567
0.0038953
0.0032281
0.00103595
0.00460331
0.00149927
0.00145645
0.00377838
9.15131e-06
0.00440956
0.00154954
0.00513991
0.00674283
0.00742661
0.0879908
0.00371591
0.0046783
0.00553809
0.0579603
0.00080445
0.00485391
0.00355428
0.00823046
0.00386458
5.31243e-06
0.00700682
0.00234218
0.000934176
0.000927886
0.0130894
0.00512514
0.00114159
0.000381781
0.007798
0.00745012
0.000678774
0.00239739
0.00053988
0.000989782
0.00177259
0.00163461
0.0037215
0.00934024
0.00260045
0.00420694
0.00124946
0.00290432
0.000782778
0.00336525
0.0084151
5.68767e-06
0.000840353
0.0021389
0.00971361
0.000623838
0.00514749
0.00770085
0.00454309
0.00266767
0.00387655
0.000671241
0.00261213
0.00307897
0.00135366
0.000417025
0.00462992
0.00516914
0.000378564
0.000234408
0.0192674
0.000893187
0.0063219
0.00511675
0.00082901
0.00504063
0.00744435
0.00219562
0.00319568
0.00264488
0.0026846
0.00374553
0.00514896
0.00586643
0.00899985
6.0282e-06
0.0081638
0.00211419
0.00293109
0.0011176
0.000854862
0.00115288
0.351287
0.0038332
0.0068003
0.00382094
0.0608555
0.00549245
0.000474198
0.000475648
0.00607895
0.1692
0.00109708
0.000549326
0.0038172
4.52216e-06
0.000832237
0.0107592
0.000180882
0.00101107
0.00766531
0.00260899
0.00199743
0.0185825
0.00382462
0.000827483
0.00855547
0.00216507
0.0017553
0.00314597
0.0016006
0.00626309
0.00108356
0.00706602
1.23243e-05
0.00843144
0.00689028
0.00554989
0.000235993
0.00640008
0.00191067
0.00229277
0.00547405
0.00585583
0.000930191
0.00768736
0.00953023
0.00466153
0.000467048
0.00418937
0.000166092
0.000757231
0.00105419
0.00375174
0.00548657
0.00710011
0.00451251
0.00118978
0.00849141
0.00820311
0.000871797
0.000980975
0.00753696
0.00185249
0.000715464
0.000648855
0.00260357
0.00338115
0.00321165
0.00123334
0.00381595
0.00449784
0.00575733
0.000974621
116.693
0.00178014
0.00888321
0.00530615
0.00518374
0.00891025
0.00640691
0.00104659
0.00822681
0.000592519
0.000803304
0.000188075
0.00819256
0.000673828
0.00647849
0.00620926
0.00546989
0.0011632
0.00512946
0.00263141
0.00984178
0.00288676
0.000355213
0.00512805
0.000452235
0.00359427
0.00722182
0.00834826
0.00563963
0.0114279
0.00589141
0.0458615
0.00548553
0.000447265
0.00393758
0.00914812
0.00329056
1.88872e-05
0.00461517
0.00578171
0.00225365
0.000333165
0.00494758
0.00647941
0.00371625
0.00167126
0.00253194
0.00064557
0.000495118
0.00490502
0.0042269
0.00228284
1.17823e-05
0.00174207
0.00064284
0.00601437
0.00109501
0.000167603
0.00901482
0.00242088
0.00113498
0.00220106
0.00547823
0.00973813
0.00290355
0.00327529
0.00954774
0.00442412
0.00383361
0.0053017
2.50775e-05
0.000832799
0.00407884
0.000277867
0.000205878
1.93924e-05
5.84721e-05
0.00463456
0.00572354
0.00856163
0.00878216
0.00606987
0.00361521
0.0005552
0.0082698
0.00523506
0.00944868
0.000614103
0.00329727
0.00130811
0.0027371
3.00189e-05
0.00705113
0.00582457
0.000925008
0.000985653
0.00353254
0.000250006
0.00959088
0.00894898
0.00370013
0.00174871
0.00496148
0.00568892
0.00226022
7.17647e-06
0.00259786
0.00218385
0.00278107
203.996
0.00185374
0.00234002
0.00414965
0.00865178
0.00857944
0.00591318
0.00387703
0.000340856
0.00849944
0.00941544
0.00431474
0.00574633
0.00134536
0.00518073
0.000627883
0.00133962
0.00612996
0.000856416
0.00280373
0.000875155
0.00198344
0.000654722
0.00713944
0.00482602
0.0058355
0.00283682
0.00569833
0.00452796
0.00387483
0.00455299
0.00581495
0.00828597
0.00652251
0.00096315
0.000571167
0.00349436
0.000347664
0.00173701
0.003158
0.00462191
0.0094951
0.000842392
0.00820835
5.98403e-05
0.00638654
0.00230901
0.00414128
0.00662859
1.32794
0.00112732
0.000554464
0.00314353
0.0037766
0.000296669
0.00267705
0.00296326
0.00460206
0.00513371
0.0002335
0.161624
0.00334752
0.0158584
0.0020468
0.00122925
0.000831903
0.00582713
0.00597555
0.00685858
0.000237388
0.00907852
0.00228417
5.62702e-06
0.000702002
0.00506947
0.00288524
0.00244034
0.00756181
0.0012082
0.00230037
0.0051982
0.00784469
0.010115
0.00866815
0.00536138
0.00154634
0.00137106
0.00106428
0.0021668
0.00503229
0.00764331
0.0096798
0.00696929
0.00618786
0.00683155
0.000707042
0.000955967
0.000858767
0.000313761
0.00118353
0.000698186
0.00904029
0.0104214
0.000712383
0.00582751
0.000944091
0.000558172
0.000727055
0.000474637
0.00595446
0.00164936
0.0055755
0.00414329
0.00491192
0.00807821
0.00758391
0.0056786
0.00855589
0.00156409
0.000864524
0.00141921
0.00547796
0.00152536
0.00743342
0.00291558
0.00559965
0.00214442
0.000272561
0.00167155
8.37361e-06
0.000459607
0.00140592
0.00790213
0.000667456
0.00227474
0.00342391
0.00170328
0.000835849
0.00107233
0.000348589
0.000415599
0.00359367
0.00882325
5.31559e-05
0.0028748
0.00925898
0.00303707
0.00614653
0.0018505
0.00481003
0.0102549
3.64437e-05
0.0489566
0.00714451
0.00510045
7.35953e-05
26.4651
0.00275652
0.0051076
0.00238568
0.00401332
0.00501827
0.000881476
0.00838842
0.00584736
0.0057242
0.000357589
0.00473053
0.0162798
0.00229186
0.00580534
0.00903287
0.000790118
0.00023834
0.00265021
0.00393057
0.0100165
0.0101558
0.000693798
0.00467793
0.00166018
0.00178252
0.00110923
0.00520333
0.000790314
0.00664546
0.0013991
0.00214582
0.00456454
0.00520878
0.0107652
0.00539881
0.00264591
0.00576643
0.00289096
0.00262445
0.00554466
0.0143594
0.0631901
0.00679268
0.0223766
0.000735222
0.00746099
0.000980256
0.000638347
0.00622434
0.00379123
0.00434626
0.0030095
0.0105263
3.78022e-06
0.00294804
0.00973837
0.00432084
0.0221326
0.00524684
0.00501738
136.504
0.00192505
0.00398778
0.00693774
0.0063473
0.00641411
0.00273747
0.00081644
0.000446362
0.00195267
0.00501015
0.00558396
0.00198707
0.00602979
0.00852039
0.00112472
0.0057321
0.00571376
0.000602917
0.00217221
0.00968576
0.00436367
0.00174674
0.00171063
0.000774519
0.00134022
0.00320433
0.00505875
0.00218912
0.0046741
0.00164626
0.00649186
0.000387284
0.00446098
1.42521
0.014701
0.00159107
0.000315228
0.000405722
0.000641295
0.000845636
0.00473436
0.00465232
0.000304075
0.00530211
0.00266051
0.00884354
0.00139779
0.00166111
0.00148048
7.68952e-05
0.00414664
0.00632289
0.0059083
61.4824
0.00502746
0.00212806
0.00145738
0.0158969
0.00370218
0.005498
0.00880836
0.00171338
0.00765344
0.00353995
0.000653026
0.00788121
0.0183218
0.00618869
0.00766118
0.00111995
0.00152609
0.0108256
0.000549614
0.00252752
0.00105237
0.00926052
0.00485242
0.0109516
0.00925745
0.00673661
0.00535099
0.000988568
0.0044912
0.00528902
0.0097983
0.000778977
0.00112017
0.148902
0.0102503
0.000125056
0.00137206
0.0011225
0.00220376
0.00288392
0.00794026
0.00351134
6.3866e-05
0.0105497
0.00908751
0.00260281
0.00318972
0.0129514
0.000564805
0.00795037
0.00634139
0.00556822
0.00738212
0.000832199
0.00427213
0.00588299
0.00450578
0.00205873
0.00832014
0.0086557
0.00813898
0.000207906
0.00323758
0.00339737
0.00673525
0.0511838
0.00618991
0.00287852
0.0984455
0.00559502
0.00612101
0.00248857
0.017047
0.00134059
0.00346988
0.00172979
0.00596375
0.0133627
0.000861838
0.00422016
0.000494492
0.000370801
0.00411731
0.00225247
0.00773379
0.00102348
0.00317593
0.0031847
0.00596338
0.00782734
0.160822
0.000814523
0.000264267
0.00127162
0.00842737
0.00589395
0.00113896
0.000237529
0.00220991
0.13102
0.00143237
0.000855093
0.00259082
0.000820544
0.00156964
0.00149397
0.00324924
0.00694204
0.00523906
0.00579853
0.0019239
0.00533177
0.00892593
0.00654337
0.0069035
0.00438781
0.00558345
0.000523761
0.00155892
0.00357637
0.000811789
0.00892052
0.00422281
0.00282582
0.000695788
0.00072629
0.0109052
0.00137725
0.01127
0.00179397
0.0028362
0.000144747
0.00254961
0.00781503
0.00576127
0.00652148
0.00846549
0.00709838
0.00583185
66.5505
0.000851538
0.000280134
0.00616582
0.00648108
0.000583768
0.00332844
0.013543
0.00559252
0.00338579
0.00929623
0.000897198
0.000426193
7.6061e-05
0.00464408
3.06454e-05
0.00517319
0.00957588
0.000284771
0.00933092
0.00113263
0.000809618
0.00124675
0.00925086
0.00483306
0.00468367
0.0055861
0.00773631
0.00462446
0.000170642
0.0019901
0.00066269
0.25554
0.00228442
0.00378958
0.0097652
0.00468867
0.0032251
0.0048191
0.00032462
0.00481552
12.0637
0.00491179
0.00978927
0.0067971
0.00160579
0.000858092
0.0257275
0.0204191
0.000666408
0.00515146
0.01081
0.00151026
0.00849436
0.000974346
0.0106358
0.00134844
0.00262646
0.000594762
0.00815739
0.00867454
0.00924864
0.00329934
0.0170796
0.000172171
0.00280679
0.000116206
0.00418399
0.00954702
0.00771607
0.00595401
0.00890045
0.00155405
0.00503073
0.00186037
0.00968052
0.00494119
0.000720189
0.00526731
0.00456427
0.000660585
0.00881279
0.00059107
0.00189626
0.0010727
0.00319025
0.00707062
0.00440213
0.00774174
0.00583574
0.00275569
0.00503339
0.00453566
0.00193571
0.000959259
0.00268906
0.125913
3.43819e-05
0.00095919
0.00583424
0.00300884
0.00358696
0.00667877
0.010694
0.00690461
0.00479345
0.0014788
0.000604334
0.0939131
0.00200449
0.00275042
0.00515111
0.010008
0.00423528
0.00886003
0.00774022
0.000562423
0.00830086
0.00261602
0.00154638
0.00549344
0.00172341
0.00424021
0.00345724
0.000582954
0.000612222
0.000335329
0.000412449
0.000357385
0.00025917
0.00058707
0.000518437
0.000554112
0.00763354
0.00814871
0.00127194
0.00089239
0.0106193
0.00160988
91.1179
0.0020499
0.000901055
0.00595168
0.00065443
0.00930678
0.00154379
0.00391246
0.00198986
0.00613987
0.00366236
0.00113392
0.000662018
0.00468935
0.00761401
0.000938076
0.00284729
0.00382255
0.00657911
0.00697039
0.000202385
0.000308618
0.00455112
0.0018085
0.00272927
0.0018432
0.0104683
0.00342092
0.00363149
0.00320378
0.000391268
0.00103619
0.00300075
0.00541286
0.0036346
0.0016349
0.00576909
0.000119732
0.0360559
0.00517437
0.00218771
0.00254424
0.00286295
0.0342594
0.00814806
0.00504853
0.000337957
0.00423074
0.00125706
0.00788066
0.0107954
0.00285192
0.00475215
0.00271116
0.00263243
0.0329839
0.000168597
0.00147828
0.00581444
0.00277234
0.00455854
0.000897845
0.0010885
0.00186145
0.0012929
0.0054036
0.000145688
0.00491282
6.1083e-05
0.00392912
0.00601616
0.00691934
0.00283619
0.0106717
0.00351313
0.0100262
0.0348793
0.00894642
0.00954034
0.00518531
0.000767467
0.0062758
0.00463676
0.000530931
0.000662874
0.00362726
0.00500555
0.00904045
0.000406898
0.00094516
0.00638755
0.0104046
0.00954845
0.00187999
0.00848234
9.69322
0.00150263
0.00556371
0.00402943
0.00256074
0.00814938
0.000943856
0.0347647
0.00200327
0.00181647
0.0104256
0.0173859
0.00420565
0.0037991
0.00373743
2.6396e-07
0.00652255
0.00791017
0.000823971
0.00229559
5.87772e-06
0.0023689
0.000253048
0.00166616
0.00394031
0.00442462
0.000797112
0.00255579
0.00442046
0.00761439
0.00407162
0.000247814
0.00463023
0.000742062
0.00741636
0.00777031
0.000744373
0.00903176
0.00244016
0.00519327
0.00450867
0.00178171
0.000151704
0.00345944
5.98414e-05
0.00964815
7.33837
0.00328548
0.00360562
0.00494323
0.0050345
0.00389859
0.00189684
0.00568711
0.00365382
0.00661718
0.00243616
0.00249872
0.00505551
0.00598334
0.00485535
0.00240896
0.00956735
0.00118521
0.00272957
0.00108994
0.000388584
0.0030967
5.09798e-05
0.00362219
0.000319413
0.00551023
0.00682788
0.000973117
0.00205755
0.00668968
0.00362659
0.00129365
0.0163143
0.00567678
0.00570028
0.00132828
0.00583632
0.00806778
0.00952103
0.00998585
0.0101725
0.000380817
0.00367489
5.67752e-07
0.00955343
0.00131578
0.0029635
0.00345266
0.00874845
0.00599811
0.00796376
0.00432044
0.00300754
0.0018674
0.00735558
0.00997952
0.0073152
0.00258493
0.00851742
0.000569111
0.00611746
0.00435068
0.00815091
0.00111514
0.00127534
0.00216263
0.00403429
0.0027243
0.00212079
0.00195258
0.00177553
0.00143034
0.00540475
0.000664043
0.000138832
0.00268158
0.004987
0.00475926
0.000459253
0.00832075
0.000481976
0.00906053
0.00263688
0.00360628
0.0103085
0.00686499
0.00463339
0.00986015
0.0156504
0.422434
0.00404297
0.00814215
0.00348129
0.00273389
0.00647235
0.00998219
0.00329811
0.00162364
0.0020701
0.00231937
5.7851e-05
0.00477918
0.000824378
0.00106626
0.0261912
0.0196399
0.00337617
0.0095889
0.00429967
0.00338837
0.0087339
0.000913521
0.0082798
0.0146663
0.00483535
0.00401759
0.00271173
0.00403194
0.162194
0.00507409
0.00164104
0.000341011
0.00571974
0.0015966
0.000945131
0.00506212
0.00861546
0.00271467
0.00500235
3.38178
0.000268537
0.00335891
0.00341591
0.00501198
0.00124411
0.00786265
0.00373859
0.0069658
0.00264451
0.00523804
0.0017853
0.00802446
0.000813351
0.00261466
0.00348378
0.00560103
0.00920168
0.0036495
0.00372438
0.00109891
0.00111262
0.00974155
0.00810341
0.00762462
0.00492236
0.00654812
0.00588698
0.00615092
0.000973444
0.0055728
0.000946502
0.00264653
0.00769325
0.00551298
0.099446
0.00698286
0.00516256
1.24529e-05
0.0137789
0.00345878
0.00409595
0.00260365
0.000607831
0.00587709
0.00260104
0.0064948
0.00793693
0.00221537
0.00685146
0.00169922
0.0025837
0.00183823
0.000683592
0.00268154
0.0065961
0.0004035
0.00104157
0.0010559
0.00694197
0.00241988
0.0016112
0.0034894
0.00400583
0.00298741
0.0214815
0.0082053
0.000627667
0.0104795
0.0174701
0.00594164
0.00128628
0.00444474
0.0137955
0.000671232
0.0015802
0.0159158
0.00606346
0.0191605
0.000396612
0.0054263
0.00065179
0.00094857
0.00505929
0.00690464
0.000220148
0.00521034
0.00759655
0.000995434
0.00421692
0.000696369
0.00381216
0.00476811
0.00539415
0.000197997
0.00430868
0.00310898
0.00106076
0.000846176
0.000800689
0.00504898
0.008472
0.000477323
0.000960742
0.00113858
0.000385984
0.00889607
0.000999767
0.00680196
0.00698254
0.000801981
0.00765619
0.00130563
0.00923626
0.00159112
0.000289195
0.00281684
0.00354577
0.00155186
0.00395691
0.00136944
0.00748191
0.0115077
0.00606844
0.00483684
0.00412608
0.000381761
0.00188513
0.00589811
0.143236
0.00616791
0.00512933
0.00101132
0.0045204
0.00160538
0.00603929
0.00423616
0.0136354
0.00804234
0.0116608
0.000871806
0.00753901
0.000712961
0.000719453
0.00514597
2.6861e-05
0.00349459
0.0050439
0.00121862
0.0054056
0.000149037
0.00106453
0.00177613
0.000886571
0.0147827
0.00418303
0.00361541
0.000880888
0.00961028
0.00631361
0.00463544
0.0125394
0.020554
8.86365e-05
0.0137773
0.000941664
0.00482554
0.00261271
0.00514746
0.00242482
0.00483446
0.00319975
0.00732906
0.0044787
0.00215195
0.00181445
0.00316986
0.000618692
0.00530693
0.000568206
0.00629304
0.0103744
0.00536167
0.00089661
0.00335301
0.00265837
0.00637292
0.00453668
0.00392045
0.0022506
0.00950271
0.000799661
0.00176598
0.000830954
0.00379595
0.00155017
0.00826901
0.00359516
2.92026e-05
0.00062405
0.00508813
0.00294656
0.000348028
0.00644242
0.00194847
0.0018331
0.0045241
0.00587647
0.0065736
0.00339631
1.37526
0.00952007
0.00011285
0.00667038
0.00146253
0.000148453
0.00487583
0.000729223
0.000462218
0.00986562
0.00452422
0.00797366
0.0853392
0.00179725
0.00822851
0.0256764
0.00740608
0.00553874
0.00575173
0.00413974
0.000266593
0.00353938
0.000101744
0.00195655
0.00375353
0.00267372
0.00317614
0.00445191
0.00547246
0.00336383
0.0129748
0.00811872
0.00149531
0.00410731
0.00630603
0.00124163
9.21711e-07
0.00910378
0.000963315
5.44556e-07
0.00238124
0.00172599
0.00221951
0.00387466
0.00959543
0.00192348
0.00631796
0.00139316
0.00550205
0.00103694
0.00509401
0.00416793
0.00184337
0.00466289
0.00161675
0.00876966
3.66006e-05
0.000928446
0.00013813
0.00214242
0.00234076
0.0068787
0.00116646
0.00851598
0.00753264
0.000560483
0.00967006
0.000563633
0.0016034
0.00080337
0.00136341
0.00202988
0.00393246
0.00143724
0.00761277
0.00266515
0.00173998
0.00556124
0.00387891
0.0010344
0.00924035
0.0032976
0.00942696
0.00963974
0.00218832
0.00217839
0.000277098
0.00501479
0.00624674
0.00561315
0.000772318
0.00130428
0.00560625
0.0106088
0.0101791
0.0030957
0.0040183
0.00669063
0.00101758
0.00129102
0.0110887
0.00078849
0.00156703
0.00860448
0.016288
0.000111043
0.00983491
0.00109747
0.00654453
0.000723515
0.000859833
0.00220777
0.00580717
0.00424296
0.00967702
0.00549079
0.000388772
0.00342077
0.00251262
0.00564631
0.000689691
0.000821764
0.00646742
0.00518992
0.00147719
0.00294305
0.00100751
0.00220064
0.00482158
0.000543542
0.00057732
0.00910213
0.00135975
0.00452644
6.09763e-06
0.00548036
0.00566321
0.000472425
0.0083652
0.00832873
0.0205868
0.00047682
0.00326727
0.00147987
0.000207097
0.00569812
0.00481447
0.00489792
0.0208156
0.000620874
0.00160036
0.00356275
0.00178927
0.00487878
0.00220232
0.00647819
0.00566147
0.00206678
0.000917839
0.00701353
0.0023771
0.00257755
0.00214872
0.000816442
0.00600271
0.00640885
0.000720152
0.00417113
0.0246009
0.000535572
0.00105203
0.00145917
0.00337834
0.00191642
0.00674539
0.0097888
0.00114216
0.00427066
0.0029456
0.0052583
0.00683771
0.0052548
0.0127355
9.76747e-05
0.00297218
0.00156327
0.00575896
0.000534706
0.00522306
0.00624955
0.0284117
0.0154361
0.00100347
0.0070507
0.00109435
0.00993641
0.000743783
0.000912704
0.00213843
0.00017535
0.00271795
0.00883467
0.00130047
0.00563798
0.00814161
0.00562682
0.0191824
0.00588785
0.00257688
0.00760933
0.0080146
0.00299686
0.000769167
0.0204352
0.000987144
0.00328383
0.00302692
0.000622142
0.00149545
0.00148367
0.00115712
0.00638072
0.0026652
0.0209148
0.00557323
0.0083129
0.0033595
0.00560445
0.00774044
0.0085702
0.000834788
0.00761395
0.000558087
0.00212801
0.00507049
0.00568616
0.00396129
1.23953e-05
0.0096785
0.0044892
0.00855861
0.00516794
0.000254387
0.00567405
0.00278857
0.00466733
0.00114401
0.00578803
0.00459718
0.0096421
0.00264212
0.00611716
0.00579031
0.000164082
0.00613707
0.000819806
0.00735652
0.00554426
0.000514432
0.00338861
0.000643072
0.00460078
0.00438447
0.000425452
0.000952303
0.0080853
0.00416046
0.00539629
0.00379849
0.00502691
0.00459624
0.00154477
0.00319736
0.000121674
0.000754313
0.00562563
0.0013116
0.00504918
0.0113355
0.00115358
0.0038515
0.00321601
0.00924436
0.00965299
0.00249638
0.00487312
0.00452804
0.00114951
0.00153771
2.26774
0.00415209
0.00626708
0.0018554
0.0051302
0.00239289
0.00397545
0.00594879
0.00639801
0.0146562
0.0101536
0.840058
0.00232576
0.00313543
0.00503105
0.00421387
0.000822416
0.000955808
0.00336181
0.005518
0.00922224
7.30173e-05
0.00131883
0.00117117
0.000121443
0.00377907
0.00397446
0.00522316
0.00955196
0.001699
0.00638209
0.00141548
0.00291561
0.00388266
0.00596879
0.00465277
0.0029868
0.000392399
0.00519612
0.000751717
0.179739
0.000920084
0.00121902
0.00129928
0.00546698