/*--------------------------------*- C++ -*----------------------------------*\
  =========                 |
  \\      /  F ield         | OpenFOAM: The Open Source CFD Toolbox
   \\    /   O peration     | Website:  https://openfoam.org
    \\  /    A nd           | Version:  8
     \\/     M anipulation  |
\*---------------------------------------------------------------------------*/
FoamFile
{
    version     2.0;
    format      ascii;
    class       volScalarField;
    location    "5e-05";
    object      p;
}
// * * * * * * * * * * * * * * * * * * * * * * * * * * * * * * * * * * * * * //

dimensions      [1 -1 -2 0 0 0 0];

internalField   nonuniform List<scalar> 
23640
(
212.745
287.437
31.4066
205152
507.309
3076.83
297.644
1146.33
1532.94
3114.32
188627
619.327
473.89
375.102
4948.97
2516.38
99.9813
125150
161053
1689.2
181245
20.0785
180022
178773
750.552
452.309
14819.7
2397.62
55.3254
654.844
363.751
243837
181545
880.569
1719.41
4373.46
107.487
198.187
38.8972
194030
651.215
1623.58
503.354
30.0629
206367
20705.5
203.575
389.988
3088.07
1197.34
214968
129383
3846.89
112.675
205139
2871.29
3371.07
514.77
145.546
208059
348.732
21289.7
200780
134885
171.162
134012
2254.63
663.806
113847
538.335
199028
851.882
162256
94.0717
2795.23
241056
2978.44
454.723
162371
199568
25265
4627.45
163.174
163.557
164.635
3097.9
128613
190950
166036
4668.22
194.47
612.465
3006.15
162846
126747
763.556
137917
3356.41
1514.69
3007.91
2824.95
109.95
178660
104.73
1239.09
188.464
204940
79.3211
672.568
1399.14
306.875
162691
1042.93
628.792
11130.6
51.6446
4939.74
282.768
196.901
736.531
180728
209115
4049.22
211010
5563.46
188305
222390
5943.32
3017.35
574.191
3954.05
2842.72
486.569
8603.17
131.021
190174
186719
713.313
187724
143806
1490.68
3490.12
160093
188756
159517
964.226
192174
194412
200.017
125396
1264.89
3280.3
173.95
202583
2860.16
128.451
297.857
932.107
2128.73
14514.5
4691.56
3308.66
4397.31
1695.98
45.7593
37.9167
202683
13373.3
205025
2790.87
388.469
10252.4
2716.76
628.832
202826
202991
568.443
11353.7
199878
528.959
206320
2658.89
710.148
1846.15
65.294
64539.9
5342.41
2221.02
208446
2035.93
2250.64
189804
208822
172.097
79.5991
192716
1286.12
3944.88
2538.13
9762.57
175123
17.6863
221.221
1629.71
167545
163.188
2659.17
180451
7209.75
202835
431.808
635.485
463.224
164.047
3330.88
1134.98
465.576
1607.74
1786.63
17.9239
494.285
188494
175537
631.809
178145
986.048
467.825
210233
19.688
194.398
233.464
68.8886
1274.16
602.607
912.226
4548.1
198661
1118.74
200.174
24154.8
3138.06
10427.2
676.889
1712.75
204737
99.277
716.902
2904.74
199840
185664
208219
451.222
202.367
202975
150.37
194178
21.6509
76.4934
205538
205382
206119
309.683
2668.12
663.179
50.8677
502.07
9935.41
1614.94
150.305
122109
2136.31
33.6445
181260
208404
5992.6
920.69
65.4831
209358
135498
604.362
189029
36.7081
61892
190463
2355.05
21477.9
1536.54
4194.09
283.701
189917
1013.21
81.4749
1062.38
1713.74
187218
1058.49
578.491
99.3816
534.329
155.073
14169.9
137130
209529
743.638
184888
39.0929
3243.82
13803.8
205679
160868
73.1334
5019.29
202914
161574
174188
9305.53
2054.06
27.1302
129240
2612.88
277.788
893.096
1766.79
2288.72
128.822
4351.41
211144
1116.34
392.174
231623
62468.9
1103.92
1859.32
3247.71
1276.13
762.994
2388.76
1973.11
1107.87
533.487
2883.72
149149
2808.3
210082
190390
119934
16453.9
626.688
923.327
1312.33
205308
3838.3
75.7892
276.658
1709.03
40.7503
869.82
256.661
200834
189068
5025.62
183496
143055
141.268
1045.44
20.6442
25.3665
2281.43
162301
611.221
8161.81
150150
72.5824
175018
5375.67
76.1032
211994
28.16
1128.19
10173.6
160888
149070
1118.47
148258
1339.52
130.312
3204.6
33.1018
193071
27.9103
114693
3585.9
3031.87
3752.54
2640.12
185491
209006
209.738
194.606
14131.4
183.956
202742
3624.75
34.5999
474.426
454.702
206131
59.3255
4083.99
2071.33
3945.55
199767
204102
1919.02
192316
618.557
19876.5
548.272
2625.84
1222.69
205459
116309
515.741
4091.84
3504.07
36.7563
210609
4005.03
184092
1454.28
72.2485
206965
202232
179073
5497.64
190764
8715.26
4865.72
18541.1
211562
3334.37
201048
4642
3073.86
45237.3
1921.96
15729.9
2438.71
179270
2277.44
394010
2229.91
203148
3463.91
105692
141.067
263.523
3261.15
205826
3236.6
2603.18
2275.06
1001.37
279487
4252.75
730.157
4007.31
3222.59
2406.92
2272.08
3646.84
863.541
206122
26.2976
242.696
22620.7
423.321
267037
4859.11
222916
1779.81
51.9307
1769.62
3059.89
4603.88
6388.18
180490
19.7628
388.744
157.167
9687.95
222784
402.9
184495
1044.25
454.758
2804.81
56960.3
8568.94
251.013
738.262
197104
36.8206
872.892
878.126
149.495
2521.65
64.5743
79.447
479.653
22236.2
272.585
3217.26
2975.75
177313
714.773
972.431
75.0177
1749.37
192738
4010.14
105023
397966
5222.34
296.609
1055.02
174462
2281.27
161821
141.671
486.52
178794
5994.12
4177.37
3227.89
568.863
3732.14
2482.83
79.9785
1295.82
1731.25
862.395
1096.21
515.84
145.808
457.891
5128.84
162544
765.96
745.867
22134.8
595.134
2997.36
19.0788
17368.7
576.835
769.265
10152.3
186388
202822
1202.62
192038
848.992
10056.8
149011
178992
2504.87
171283
15009.1
3411.48
374402
426.329
1040.83
156.047
266.539
161934
3848.96
3137.08
1653.77
171.862
206926
1495.18
253.431
2352.43
162808
168333
1516.96
1635.37
429.605
171721
200052
835.423
614.711
1727.78
148.4
131293
1539.67
8633.38
873.164
2443.09
191920
180057
205836
5490.93
546.335
2630.22
3465.84
242.245
784.204
173898
752.732
1265.63
660.416
700.51
3319.6
3209.11
3593.98
1103.98
134.644
211536
167047
577.459
766.519
200315
480.44
125738
403.066
176253
768.577
4504.28
23.5775
1720.82
100.077
531.665
18.118
205724
762.688
417.162
212.543
4907.47
1713.9
4147.23
192342
470.787
2621.28
1496.33
175447
7961.81
116.726
623.949
3357.07
210450
159524
187.187
1571.78
210282
8758.79
181054
499.077
1346.28
1712.81
16740.2
52.1587
4700.24
22.6328
20.1856
423.468
210326
163603
2417.32
209689
1321.05
467.69
4385.13
138364
129.723
586.285
624.243
157.728
197392
209039
1825.28
785.313
36.6775
914.949
98.7746
205917
772.277
23670.8
209617
51.2246
2536.99
101928
280.478
100985
81.4616
4425.32
996.27
187711
987.514
252450
136274
1026.2
181162
206.249
995.948
193388
2749.24
196039
2401.2
164142
190218
6641.86
26.7566
18.4901
4351.36
3608.17
285.496
178078
4725.54
2009.66
21548
2077.22
27.9742
2661.74
29.4992
42.9827
96.8002
1107.24
204387
1141.73
232.764
197792
191054
131.943
920.799
4156.93
624.735
198172
1375.43
1646.48
857.373
198458
5734.52
90.284
73603
251.375
136715
61.6658
631.015
74170.5
25.5147
1018.71
550.75
678.764
266577
9493.55
87.1352
125338
197025
269.411
143.873
97089
1436.99
205681
3521.21
192583
1186.64
151416
2624.91
4110.33
1503.91
18435.2
1038.35
169433
498.993
204130
1795.25
109326
3334.35
1809.35
212625
27.4895
3345.38
3851.5
224211
7722.76
59.8995
1749.21
1054.03
22.9335
4248.7
156051
786.183
39.2761
186735
1866.87
199542
142.881
194324
1762.51
3760.47
992.824
308.543
2176.02
209511
286.546
162994
195409
583.418
3300.84
176494
562.55
206285
2836.7
2365.45
263.471
139644
5022.81
641.996
1818.59
3025.08
154964
2558.8
4729.43
194800
4147.03
273.194
1991.13
98331.2
597.819
9395.9
211.241
137934
1005.81
1258.59
2853.71
48231
29.6888
512.164
138425
2496.07
185353
1123.75
127.624
120.271
202759
604.135
196324
553.671
559.651
475.922
4597.24
629.103
157202
377767
1723.01
3499.67
1763.07
3254.19
2267.21
249.32
797.87
204967
21945.5
451.564
184711
210.303
206938
4634.54
5277.13
196307
200687
185719
264035
54.7075
209291
27813.6
148.031
26.3721
1707.39
432.996
137592
377.581
5999.81
2861.05
199573
3980.85
205812
807.592
19.837
8218.6
647.159
3959.38
195157
2629.41
2739.7
1739.98
16.9441
176576
173718
3291.12
467.015
378.79
100349
32.689
3793.71
1773.52
1804.88
120.506
8103.04
27.6558
3241.58
2562.96
211664
753.196
28373.4
204502
170180
195897
3314.08
150284
679.773
193733
39.6048
4377.22
75.8035
1767.16
3268.78
242138
137056
162618
30.0023
1100.55
206256
5006.21
4745.95
569.577
1405.11
198317
3161.79
22.9838
2908.07
3450.89
196249
3415.02
196010
104899
79.6797
293.565
572.554
188135
144.287
4651.91
226.32
436.744
204360
24.142
342.691
65.278
1459.34
188.294
168016
361.259
623.312
1738.85
405.579
210173
145.486
423.77
180695
224.51
189385
1423.58
4018.67
485.197
818.026
4535.81
1030.35
199355
3446.02
191.144
678.855
414.23
452.835
162921
18.133
534.296
189938
160663
308.333
205679
1004.94
831.912
196838
1537.83
209875
147.732
1448.13
4292.15
2977.22
399.653
110719
2074.18
4702.43
19225.1
5457.04
75.2446
2958.64
3902.94
38.4938
900.858
223.287
287.289
184769
3640.33
1287.16
277.569
1134.88
3281.79
164037
210201
19.876
188014
2781.96
71.2907
261.914
205553
140343
430.042
151341
2573.75
1330.98
1243.13
212.371
1046.71
526.499
4541.3
1303.5
192.861
392.77
195777
155591
269.651
210.296
14948.1
1339.24
22776.5
207089
1684.62
228.752
616.891
206821
186980
163686
792.047
124615
988.975
3961.34
1485.33
2398.1
176006
130.064
200324
458.061
394.432
17.5921
11048.6
58473.4
3406.11
202154
25.3203
2986.9
31855.1
24380.8
1120.34
7850.19
356.8
227.53
187333
456.222
3818.76
1538.05
42019.2
2962.97
5065.12
2396.08
165072
202417
655.078
2162.08
871.614
415.11
3251.56
12216
493.379
513.569
135.132
4909.61
357.764
1452.45
25.5868
20.4396
204001
72.7252
1072.2
183537
114.882
1584.56
26421
157061
1660.69
375.346
374.915
1035.49
928.383
11707.6
70589.8
3093.2
3788.73
202983
459.083
290.441
56.9208
129.265
209668
885.109
1160.96
885.896
206298
165075
3312.63
3342.33
203285
259886
71.7347
25.7856
1199.12
2516.8
52.4488
136425
2833.9
74.5918
190191
1563.99
6623
203939
206882
61.697
35516.1
3902.57
215.836
607.837
1273.27
945.065
82.9312
52799.9
144797
3908.43
184709
808.83
2869.19
135557
228.262
3297.81
2572.15
152480
165014
1635.81
28583.5
2322.15
3118.68
2586.52
3301.13
3058.57
2676.4
857.236
166080
1977.8
685.081
185.625
160925
169295
61.9014
93.1712
173106
24673.1
37.8415
182521
449.16
146080
760.826
1711.87
1226.11
651.916
401.425
82.2099
374702
1465.73
192147
408.514
2329.74
192549
803.792
76.1353
3829.86
3171.16
187025
3021.59
190575
32.2694
761.95
1071.37
493.16
302.864
428.122
379.799
75295
530.861
25.1345
296.189
3272.41
829.311
115352
187530
621.54
198664
71479.4
206230
2519.56
4972.55
228.708
152988
820.458
26.1613
357.92
463.611
254.529
16.4534
1036.53
631.688
1973.34
2494.34
205119
4095.44
24.6508
964.877
129137
1808.64
2994.58
246351
4194.51
1723.53
77.4413
2701.09
5115
295.352
368.071
302.959
2356.58
192879
2374.15
147157
29340.4
3624.24
871.913
522.676
18.4521
50.4729
1015.66
199417
29.7433
3777.44
29.1637
996.425
196321
45438.7
192842
1412.8
760.947
4187.2
120336
644.974
184192
4998.59
549.634
160.96
408.269
5143.48
1965.39
600.454
4871.88
3003.97
833.027
3117.61
7597.59
159909
170.729
188.259
1105.53
394.32
292.807
4310.61
349.185
285.692
692.476
384252
2495.54
2360.33
1638.73
160026
187557
195390
1033.61
2915.97
3691.11
174873
291.544
387.112
136.359
1421.44
42.4528
118.826
2247.47
49.2408
3667.57
52.1771
194307
17025.1
2435.25
656.835
461.433
1907.93
589.747
204670
1039.54
13506.4
447.424
200004
201246
56.197
25.4498
665.102
25.7394
211.711
1507.5
2755.27
184561
3273.05
202583
2763.94
936.125
300.062
2045.53
1176.74
241869
198975
4004.26
8524.51
3312.69
3882.93
161475
464.625
356.832
898.362
43.7283
244572
778.211
204906
268.212
103.265
58.5961
1771.67
626.911
2486.29
2778.67
160503
199462
20.0412
47.4547
1480.64
1683.95
306.395
19377.7
2386.64
12399.4
1486.73
10560.6
194765
14881
542.435
155.268
3017.87
3425.3
8336.07
422.156
2724.95
16173.4
1381.29
24227.7
1932.06
54.6165
1773.57
171059
129892
168333
33.7389
192828
125583
4762.84
1712.59
59.8692
3849.51
37.1964
194534
671.98
188.419
377.649
2149.47
622.055
190191
1210.82
8804.35
202480
2145.96
1775.69
4127.24
1628.5
2229.75
2663.37
458.434
543.44
265.876
2999.82
156.726
20.593
4048.42
118.792
170783
34.1516
1602.39
607.771
3739.94
1668.7
354.73
21.2287
18.0934
773.102
176675
4023.12
453.592
209049
471.285
1160.54
635.067
2465.01
111534
2936.28
206338
209065
440.02
26.9552
274009
405.252
816.002
4554.49
199412
569.549
3151.87
2307.42
1738
503.815
3983.29
2912.68
207011
158363
478.302
120697
143956
26.607
1893.27
144655
194792
199962
4596.06
353.942
209614
2757.26
3059.61
470.212
136061
185513
120.657
285.251
351.795
444.473
133086
394.554
421.119
1812.01
201264
7378.8
620.273
201857
206401
202620
208612
50.9959
2658.23
170263
182925
994.466
3121.43
311.743
731.861
139216
2339.49
7866.64
164091
299.155
204794
206992
203049
390013
228.417
225.985
941.285
1078.71
50784.3
37406.5
65.2763
18.513
3529.03
1514.12
562.918
6248.23
600.12
201347
1711.43
508.954
793.452
28.1432
2897.01
193227
257.028
226.184
210945
202664
3785.7
533.328
648.042
3088.69
351.96
205.434
2248.46
3787.93
191953
214939
204998
2072.78
4645.38
3856.87
213016
1717.41
2610.22
1466.71
156051
369.848
196059
153823
3954.34
3693.15
136.284
23.6045
175666
1267.58
750.049
359230
434.511
1990.81
3020.93
205793
971.15
597.173
155221
1429.49
18865.6
151.587
167120
3026.55
204197
857.219
1574.96
4648.28
1517.56
129642
4966.26
615.991
2599.52
6021.23
861.637
197005
6157.9
132791
1657.38
3040.04
196.626
1582.42
12989.6
41.5587
3104.38
210023
127097
5191.03
199283
195.349
8150.4
423.634
59438.4
152.853
2619.36
201625
201246
359.864
1555.75
200024
44.587
1978.32
1011.3
553.098
1776.23
52.3139
284.706
1340.23
175812
1887.23
6180.74
196492
5349
48.703
1775.35
607.754
1565.7
224338
3831.44
204467
210696
1792.22
526.664
1127.81
203288
175.456
636.659
2862.02
910.212
200455
61.4765
2400.85
4571.64
204732
199222
4051.84
191640
66.149
526.521
201110
146018
1864.73
210178
57.8628
16.6913
224.37
15417.5
2498.37
238.439
149879
321.844
211616
139.822
169.915
420.339
58.3023
260510
253261
566.445
155927
656.006
447.472
200648
513.307
8295.34
1095.53
1263.82
256.881
1739.02
29.7057
164707
770.897
50.8765
5036.76
1030.06
419.461
4643.77
39.2731
197069
537.757
212556
3477.45
1071.98
194378
199248
173414
1816.01
177927
168673
1544.78
2167.51
356633
195235
31.4346
548.304
177186
181656
776.339
200658
183441
205180
198700
104.043
16.8758
2919.9
1009.14
3418.7
10709.2
174069
3771.67
181333
89.204
71.1283
1661.49
148275
191218
2352.79
487.175
186248
322.056
3185.37
2704.87
182.839
210334
1335.74
197366
13388.9
2152.01
102632
2535.74
3040.61
655.673
322132
1094.76
70899
769.027
205.858
4746.54
205346
204451
34.1302
697.634
131960
1729.23
4139.78
196534
104239
116550
1894.32
29.4371
167513
38572
197775
699.358
206047
133986
422.544
25.8339
237.694
7880.14
200398
2555.02
119703
3983.63
347.703
2560.56
14894.6
366.421
3205.5
674.833
2438.32
4171
177217
3139.49
3187.9
195563
637.39
1601.79
157751
4949.76
2507.24
420.921
648.356
1255.42
240.544
71.2424
1747.34
207954
2866.7
54.3118
2170.02
483.533
2533.41
1099.55
105986
21116.2
1081.1
161.597
28.3747
207375
4064.31
571.806
634.329
156588
260.606
196732
199369
24.3795
193203
204644
172.183
378.685
191258
2363.05
623.56
23.6662
26.7217
25.7902
16.9359
21.1207
29.9737
26.959
19.0793
23.4261
1238.98
9526.48
440.498
55.9773
138186
181.035
356839
388.337
54.5856
852.877
24.035
171728
175.099
2077.43
250.707
1688.93
3131.86
80.4495
194193
827.594
1066.02
2597.8
2236.36
24079
1101.9
1322.18
32.5716
2857.34
685.323
170388
2585.63
7233.3
202125
607.47
778.895
528.276
30.6181
65.9574
542.884
628.686
177.075
185.832
195931
3918.83
221656
1020.4
121633
203343
652.717
217002
5549.44
726.575
27.658
12071
85.6525
171630
201725
624.579
369.616
427.426
376.308
205584
148514
3389.15
707.186
153484
1303.3
56.7398
176687
369.948
3412.18
1642.18
3333.96
4922.51
174719
858.73
3949.42
1185.73
580.297
105634
1222.24
195704
207810
176623
188105
710.327
47.4761
1064.68
194892
5006.48
4027.9
762.006
370.169
23616
22.8296
92.1989
1035.81
136737
16281.5
1786.67
157337
308285
1447.57
10422.6
191962
203061
159399
73.9388
205727
3891.98
3383.91
138591
202855
258.433
199.423
177.648
17.1059
1049.15
1853.61
229.739
301.287
3064.44
182605
3124.02
4404.44
13853.2
287.717
4363.07
376.126
2268.77
200201
3237.22
3225.99
1056.79
4990.63
1260.51
3168.58
4986.77
171822
313.693
1036.55
287.882
185.821
5018.3
9896.31
174935
147932
281468
564.964
197189
448.243
2738.28
194.299
239.855
660.534
152.259
105361
2637.54
125821
801.52
1500.5
1249.48
2453.14
198892
3345.39
2518.63
173.792
3048.02
32933
2876
165.937
2865.17
2257.17
1381.55
4872.9
201662
902.729
778.75
199465
203234
552.577
1504.73
165424
10563
12036.7
197977
161335
83404.8
30.069
2126.74
17.4111
185552
135.377
3122.06
2934.77
4658.16
2521.63
55680
995.251
3347.06
200569
2532.35
158730
1896.6
160500
156028
2091.13
516.964
291.711
5762.89
116.864
184.878
289.864
203.637
2925.79
11821.1
238.441
236.33
4677.85
1448.79
43.8605
5124.23
1753.56
686.704
126560
192242
1778.65
3147.04
94292.8
200166
3419.57
126678
1375.03
1138.44
159472
202525
222856
253.277
12173.6
182381
2655.18
146452
122411
1667.71
201.477
264.4
482.019
2861.08
1450.02
53.429
61.9914
205428
204050
1163.66
194857
2443.75
589.582
18791.6
4942.04
2230.93
202018
1497.51
3002.79
404.041
248.332
210609
868.992
189565
198933
450.812
178.991
127.231
1465.84
165262
402.469
1465.8
263027
28.758
181838
612.275
175150
2893.93
31076.6
10216.8
717.869
385.918
973.798
4277.1
200653
2740.56
387.761
5376.42
672.029
26680.9
800.732
1211.62
253.452
87.9084
202237
172841
1423.54
1515.17
981.229
922.496
1315.34
3246.22
147616
74.3331
1596.29
131698
778.471
211189
1337.53
1038.78
3832.67
203631
1195.36
251.966
349.004
33.9143
1851.33
967.592
1037.29
1713.1
319.985
2211.58
174.214
362.72
2139.39
4062.42
398.754
624.262
2893.52
73.5014
74.3121
1351.74
355.591
237.695
199234
198.916
546.359
204110
3374.83
3421.53
195185
205244
1845.08
3970.81
79313.6
203515
5019.48
199232
217334
1527.23
207143
17.893
550.118
25.3325
114.928
1516.84
25040.6
2964.72
1036.57
1727.34
204955
1240.72
34.8703
884.673
269.659
391.795
32.0756
894.907
605.951
74.7278
5182.92
44.7557
191517
193613
6452.27
54.2265
176790
176077
123722
198172
890.939
1625.93
3322.45
18276.5
125.403
5545.47
3973.42
28.3937
485.151
750.463
153.186
800.28
120.33
1103.72
200550
513.346
343.059
261.692
142545
3610.71
961.962
207924
675.573
649.284
79.0409
337.3
1508.67
21643.3
819.652
201978
210131
200761
57.6607
49186
44.074
39.4852
1106.24
2898.95
722.278
782.073
3599.09
442.509
195786
133.326
2211.17
60.3592
211486
255.874
3347
53.4219
26623.9
824.043
357.301
202149
209280
31.5539
201506
69.6919
345.306
369.642
842.805
2617.2
423.259
620.816
199775
277.72
3896.01
20882.5
2265.78
135.102
552.115
15436.6
834.144
195353
1662.73
4868.09
188377
368.809
861.222
717.627
2754.28
188452
187620
52.9496
133043
57.9186
204.603
199628
2534.49
3422.33
2935.82
3434.28
348.696
1577.55
174304
40118.1
234.734
2132.04
749.054
907.908
43683.6
610.371
224361
4967.34
3199.69
1091.08
133.145
30.8459
334.206
38.6817
3699.56
161279
276.911
1756.68
207256
209.301
160895
204737
185392
744.498
484.894
962.132
3309.79
143134
3240.58
248.278
865.834
1757.87
86043.6
1243.45
1700.25
596.44
202331
165919
4061.88
1168.85
773.643
164.117
22.8759
28806.8
64.4282
23.8111
316.442
1409.08
847.15
2710.29
26002.4
2245.52
891.421
1685.52
1995.62
77.2286
865.553
11294
3274.18
392.291
187.332
17744
3277.14
63.6898
3974.7
212577
162630
1603.25
142072
199630
1164.41
29.1713
162684
2010.93
185.61
47.0436
152.246
188751
158627
166728
1245.82
399.459
228.035
607.623
899.27
72.2241
7043.52
6944.43
108487
190748
2323.81
295.561
30.0116
172349
656.985
1782.64
54.2196
140.539
1853.9
102841
120854
1726.78
1970.92
46594.4
3391.59
1543.89
199875
51.5555
2167.31
164288
205315
2913.43
163366
4771.95
155933
37.4159
61.3226
260.428
498.652
284.771
202762
453.73
27.1588
615.157
1672.37
381.637
35.3288
2686.1
981.636
1631.01
441.898
188380
2638.73
286.738
359.876
3661.87
34.6288
189816
114.417
1820.64
28.8991
1256.76
30878
18.2542
183605
173155
204027
20.8485
578.029
162.313
3735.04
670.324
318.958
1156.31
203955
29.0401
2617.21
1628.02
2017.78
737.448
1065.43
154902
509.026
293.84
59.6759
1587.19
412.499
1285.23
326.828
57.9933
699.234
1065.71
5062.82
281.176
204685
4957.57
224.128
188.569
919.816
150532
111759
194772
3305.45
84567.6
523.092
1519.1
144868
953.36
200333
2715.48
467.001
1491.49
620.119
192734
300.521
772.316
205300
202200
3487.65
200592
67.7919
194775
2977.03
85.012
2301.1
4762.42
477.208
79012.4
209178
390.777
9887.35
587.705
204349
481.945
388.967
46506.3
34078.6
130809
119.672
205551
59.033
1658.81
479.058
28.9188
152.505
150.885
7325.42
1043.24
1796.68
206132
2270.78
184585
120692
107779
5460.89
62426.5
4838.52
1098.49
31.7627
239.531
434.55
166185
804.004
26.4836
75806.4
204540
5736.25
784.232
3435.41
510.997
419.565
1350.22
76.7398
647.436
352.873
204272
2533.19
1737.25
496.004
39.0468
532.546
47.516
1422.14
191713
21.8996
614.897
3742.77
172124
221.768
18.227
55.7657
3367.37
4933.55
740.421
2314.1
464.338
642.16
169.939
535.246
8090.77
4849.76
1779.94
3509.02
1176.02
197417
2921.58
910.081
5484.54
43033.9
200785
2927.95
666.021
1142.12
86.9874
708.384
261457
251.818
887.862
182727
318.905
300.877
244.638
102263
196707
206373
195143
212309
397.034
145176
1556.25
1253.53
7688.7
54.5442
9346.1
31398.3
6708.53
189313
4065.88
139.303
3994.67
903.869
1962.2
1585.08
199334
1488.26
1083.8
126.512
2478.5
3178.29
484.512
191958
1537.41
141134
881.498
43.4545
211273
71.177
191111
328.702
370.001
181.698
311.51
845.7
103.984
1687.29
284.604
3539.39
214.061
220.075
720.823
488.392
13.9714
192254
486.937
693.734
187194
49.7972
312.666
655.875
659.492
167194
6851.9
840.863
4661.67
202532
29717.7
296.836
957.53
5178.79
4162.95
33.4035
171.477
200.848
846.212
803.799
15487.9
76.3933
316.105
968.341
588.427
171507
507.782
117239
653.296
200461
54.088
2689.81
128141
5074.13
25.4306
166784
186104
517.345
94182.2
3319.1
3555.05
202045
985.193
20628
136.005
2295.41
133.641
13.9886
470.682
3040.6
249.101
210.271
201898
189777
2990.18
1904.5
118211
550.404
382278
58.6491
2196.91
738.051
166.128
204582
238.525
24771.4
571.409
1078.07
2094.43
3174.8
154.522
327.427
52.4528
3202.39
38.9638
7498.13
204254
200851
332.473
206135
542.947
3188.62
899.488
28.5587
579.428
3616.55
824.806
327.933
338.054
558.234
177513
199355
1973.54
55.4374
192613
680.753
3500.19
91.0871
2074.07
803.967
34.6666
55.8544
48.8588
205719
22385.5
2589.88
1349.54
214375
214.546
3006.62
703.893
435.478
3763.07
212926
669.587
16.7764
174006
3569.04
310020
62.1274
158167
154687
3178.72
1017.63
3508.13
175735
399.57
9182.14
203975
370.954
205725
200388
557.867
203474
570.236
185785
1244.19
2291.53
520.037
826.037
2712.23
52423.6
155308
2335.11
255.967
206263
821.721
239.676
435.935
345.623
204787
617.727
98977.5
172246
1327.08
1512.26
961.974
4233.31
17.5126
195386
24014.9
664.051
194957
3503.21
3934.78
78802.8
637.969
673.899
3270.77
162914
192156
1142.44
202891
263.698
1838.18
6324.38
139821
1035.74
1220.8
2872.7
3970.93
658.272
6893.64
714.931
126.548
1219.88
4089.24
193964
172.282
203236
861.136
214.682
800.908
23.7844
2944.5
487.584
1185.48
25555.4
615.533
836.965
147528
252.968
250.631
141068
1313.53
1380.82
3750.58
3393.31
204575
209344
869.891
100038
4493.86
1843.8
65.8868
1187.1
3669.45
3736.32
3400.14
14134.2
140.763
367.746
39.5791
38369.6
53.8845
124004
742.619
1750.1
210.757
175391
3671.65
649.401
234.694
121.662
787.363
3054.77
19.7489
154884
477.941
2677.71
368.247
69.0394
85319.9
1195.07
202576
160688
2470.2
54.8006
164.329
1148.27
39.3152
1290.62
184201
3186.06
1237.89
2872.47
196414
55.6225
36.4167
206017
1281.97
57.9949
13056.1
687.124
1285.23
47.4541
3320.61
171243
4086.36
200724
94.4679
203045
3016.06
3823.11
188655
1517.41
204088
4099.4
5373.58
212.457
50.7928
588.77
239.762
2688.22
38111.4
212848
195854
2331.38
48367.5
34.7226
170217
509.814
1156.94
2270.36
4256.93
3133.47
2059.24
180.101
1310.59
617.262
30.3504
98.1624
841.253
651.159
169.995
4250.33
8361.97
1540.27
2006.98
148841
805.686
1745.88
874.334
2114.72
187821
22541.9
185.679
54.9265
4240.9
1325.82
616.816
192638
4634.85
1490.52
605.026
1318.39
207283
200130
600.94
1176.91
983.601
770.783
1517.26
89.5242
84.582
204152
98.6921
2711.08
127940
2375.83
8783.06
197061
1208.47
167445
3734.97
299.27
116994
11208.3
1899.21
199133
99.7071
202866
202981
184555
185.735
210241
3010.02
2656.86
1074.99
512.942
140.769
234218
213202
1292.92
258.443
936.094
1643.87
201938
12845.2
3461.46
206365
154429
51.3766
3403.22
200806
137052
971.021
203025
3979.44
865.816
690.049
192646
1886.97
1728.3
205827
585.603
2876.68
200980
27041.8
2226.86
205367
112.59
190740
73.8304
3722.56
6803.77
3037.4
1093.19
360.345
1109.01
954.162
1798.18
632.535
114624
1631.03
1331.47
160681
259.556
2303.99
231.461
3134.2
10996.9
632.751
41.4005
3127.02
3518.31
201.964
2475.35
987.409
2932.44
1877.38
25.5617
173.354
73.9219
205840
3826.21
6643
1579.65
120395
65385.1
209306
1748.05
2737.41
1118.12
1993.22
3110.73
4722.51
861.001
477.279
156312
84575.5
220.707
5029.53
384.442
200795
97785.1
51.3442
772.553
13594.4
3072.69
208564
2007.01
885.974
162.611
608.589
207.049
77279.1
361.897
2628.93
145586
1637.14
4498
129116
4668.47
832.171
2866.1
2366.93
176792
213036
1072.65
148651
213648
214163
84339
175443
614.146
100226
873.377
3390.89
26.1847
776.311
4094.72
4678.68
1205.4
336.663
56919.2
927.124
1479.27
128.09
133799
55038.3
923.926
203621
342.814
189118
209611
234128
250.533
3719.4
27051.1
548.156
505.209
1643.78
201495
3104.9
194665
171777
19.9201
27.9806
17.3303
20.0783
28.7184
30.6313
18.8938
26.6825
26.9582
1151.55
74.573
91372.2
873.58
166.325
83445.1
1662.95
2390.81
1188.89
3509.12
8806.2
128842
2290.27
3243.03
86.5706
6414.97
189.194
5290.42
3049.15
3806.72
3277.24
636.938
2741
167264
2552.62
3199.16
4843.8
9901.87
541.072
3696.32
1250.81
26.7128
397.456
95384
205865
94.7206
1020.52
174.085
276.964
255.361
222.525
169.204
136943
166110
108550
161505
4562.85
121200
849.531
43.3366
1537.82
1502.79
1756.3
22.4401
60.6105
3473.02
118546
54.2228
1349.2
43774.6
314.09
7304.73
515.361
1515.53
45.9294
4891.62
1081.2
370.114
190475
669.292
3778.07
2859.16
50.8511
244.022
879.09
136078
205575
194830
537.267
2945.9
1609.4
694.235
1015.42
259.623
2714.63
209031
200983
1243.85
829.126
165558
138478
45.0484
206058
157930
408.194
1946.84
202781
166272
2701.7
858.093
5784.46
153182
9435.79
2252.46
5291.7
3584.54
3053.2
194890
15725.4
77.3848
193085
968.106
4606.5
573.864
18373.5
278.557
17.7384
1821.17
2664.89
4163.99
1120.35
201802
51.1704
176442
176313
48.972
11009.4
167824
147101
189307
7811.4
295.658
1511.01
1661.92
54.8032
401.244
2886.38
13651.2
2923.4
197883
97775.2
712.469
540.133
1451.61
160495
3020.92
64.5374
181.106
1094.29
4604.18
152347
1666.53
2021.76
829.567
2679.23
79908.1
807.713
23.8241
131.404
63.1162
199812
176474
875.936
11308.8
180997
6761.87
183431
1183.71
115554
966.546
192475
5414.45
3620.81
208757
68240.7
207643
909.639
1315.28
1775.42
267.365
221.384
624.514
2509.05
278.909
1771.5
2951.15
5153.5
2345.21
27713.5
158952
204511
3592.53
201335
206923
203987
1600.93
69.054
17252.8
187470
1259.56
976.56
279.08
958.888
418.429
676.459
1331.21
152223
183790
110790
12852.1
760.707
574.955
32.566
203055
70644.2
305.218
620.204
156739
1360.88
20126.4
178260
115.212
446.667
661.855
486.642
1350.36
407.706
9383.85
357.478
204011
2323.38
3909.4
204236
3358.66
155222
206977
207842
3035.47
202393
578.921
48582.5
183379
85.6891
2836.64
178015
57161
69767.1
3750.12
41653.5
935.06
3000.59
457.291
251.119
1011.87
28.033
3412.1
905.938
254.733
697.372
3450.78
525.909
10256.2
4150.44
1243.71
262.523
149.688
194.412
535.608
36.4857
117.302
909.839
350.419
4948.92
19660.1
2046.55
2182.11
61778.2
914.805
1893.99
204328
203199
5175.96
133.343
2906.65
2720.2
103812
233.326
3134.52
304.091
3805.99
188.255
2964.94
3773.08
438.116
3039.34
4012.67
1279.39
34.6956
209932
128039
825.635
5476.95
2541.9
3130.42
200997
2148.58
165887
4387.18
7983.87
616.197
890.706
169.086
213627
3417.05
158287
4079.83
1299.01
183136
3902.02
67.4666
203868
1237.46
179237
509.838
216.412
2854.22
717.522
184345
170.731
162.836
89968.8
10198.9
4513.01
62794.2
7354.27
2920.04
904.645
2328.11
749.853
1759.88
1743.6
132401
119728
211198
200574
231.106
447.168
917.488
29723.6
41.4479
66959
19.3261
217738
2564.03
308.463
190.228
2461.17
537.133
8812.69
153686
49822.8
722.684
114663
197570
867.691
3178.73
3758
1457.57
20.7364
4637.61
260.915
1244.27
188077
175685
3364.73
53622.9
255540
4888.69
463.752
34.9417
1525.18
24579.1
105611
806.158
1461.7
761.082
1194.86
3071.34
201785
728.877
180298
5715.09
1536.05
1710.43
234.581
802.32
18165
284.289
3080.53
179247
4693.29
865.933
3276.61
126366
182.49
181.02
3496.16
2416.22
567.199
7213.64
8296.13
329.473
172944
1036.04
254610
260.008
190220
25412.1
4564.23
2770.09
646.16
178923
2743.32
166856
46.2098
1763.25
2163.88
1785.28
230.47
3754.75
1484.59
1024.64
184761
167354
1449.92
161.587
478.093
452.65
1738.06
174355
60.2144
2569.89
177438
3832.49
2699.66
86830.3
178632
251.342
201719
3349
204086
5083.74
215.803
541.352
3426.04
157598
550.233
2914.5
3773.02
6264.29
2464.5
1262.02
109841
195989
751.193
903.627
1481.83
1808.55
112514
19044.3
167268
539.76
251.512
3377.63
79985.1
14045.8
325.52
359428
287.778
3094.83
206260
590.388
34559.3
80771.7
3181.25
21.3909
28.9096
28.0109
17.8465
28.6037
25.6491
28.0565
20.0345
24.6271
22.9117
24.6253
20.1507
27.4375
17.4119
21065.5
3600.96
4198.94
1665.1
2157.21
607.108
545.553
67.9139
179037
1043.22
250542
210639
6801.91
170544
596.983
293.51
3846.34
22220.2
4446.32
145335
93379
66.8074
213497
2865.7
516.029
133158
2928.03
162472
246.901
83878
385.373
190415
187.969
192245
348.702
214021
506.463
4578.39
7519.8
184118
1407.14
171922
202891
346.432
1165.69
697.672
2122.9
1013.61
94139
546.329
201841
4215.42
3772.25
149732
55.6425
195927
127220
173513
3630.71
845.32
5325.8
3000.04
93320.1
205326
552.02
171694
4805.19
204426
145.651
2213.39
4057.36
432.846
4535.16
1490.28
289.255
399820
4442.52
194830
577.974
801.103
3481.22
3075.48
2462.86
72807.7
202512
166297
2761.64
515.587
153456
23394.9
2510.25
168.458
171449
11723.7
92530.8
2824.82
192889
638.326
18122.1
1476.14
1431.01
207118
89388.5
171.339
121870
1403.53
779.914
205903
78962.2
139900
158276
1758.6
501.462
200052
2867.15
590.666
1394.85
2953.05
200175
188.758
150828
172177
7269.31
3256.83
583.944
4007.02
133123
291479
16345.2
706.179