/*--------------------------------*- C++ -*----------------------------------*\
  =========                 |
  \\      /  F ield         | OpenFOAM: The Open Source CFD Toolbox
   \\    /   O peration     | Website:  https://openfoam.org
    \\  /    A nd           | Version:  8
     \\/     M anipulation  |
\*---------------------------------------------------------------------------*/
FoamFile
{
    version     2.0;
    format      ascii;
    class       volScalarField;
    location    "5e-05";
    object      rho;
}
// * * * * * * * * * * * * * * * * * * * * * * * * * * * * * * * * * * * * * //

dimensions      [1 -3 0 0 0 0 0];

internalField   nonuniform List<scalar> 
23640
(
0.000609702
0.000984126
3.03271e-05
0.174197
0.00150197
0.00458419
0.00103862
0.00257438
0.00346393
0.00581743
0.168694
0.00184393
0.00143643
0.00119518
0.00663767
0.00376557
0.000309567
0.12316
0.149347
0.0040481
0.163869
2.74791e-05
0.162987
0.16188
0.00203831
0.00144045
0.0230133
0.00538145
0.000195215
0.0017486
0.00117598
0.197143
0.16409
0.00243153
0.0040136
0.00600798
0.000329683
0.000679431
7.54617e-05
0.172499
0.00190868
0.00364989
0.00149664
7.44908e-05
0.171839
0.0291794
0.000613663
0.00126178
0.00580605
0.00260626
0.173956
0.126169
0.00545928
0.000398047
0.174071
0.00337722
0.00619613
0.0015125
0.000596302
0.172458
0.00113998
0.030498
0.175736
0.130309
0.000674721
0.129635
0.00338782
0.00185635
0.114048
0.00156676
0.175477
0.00235916
0.150541
0.00032195
0.00418775
0.194958
0.00350013
0.00138998
0.150334
0.175151
0.0340548
0.00875922
0.000647084
0.000646244
0.000653465
0.00466782
0.125642
0.170324
0.152697
0.00635557
0.000743812
0.0017434
0.00579856
0.150845
0.124166
0.00206518
0.132535
0.00414781
0.00343959
0.00563052
0.00576759
0.000389965
0.161569
0.000349943
0.00310456
0.00063865
0.176366
0.00029835
0.00198454
0.00326834
0.00103549
0.150837
0.00278229
0.00185617
0.0166916
0.000199787
0.0066034
0.000967379
0.000559385
0.00193767
0.162857
0.170039
0.00458755
0.17113
0.010416
0.168597
0.179904
0.0103014
0.00462676
0.00172816
0.00797183
0.00592375
0.00146682
0.0148148
0.000437337
0.169759
0.167568
0.00196271
0.168093
0.136892
0.00343554
0.00624694
0.148952
0.168762
0.148292
0.00245076
0.171078
0.172772
0.000761212
0.122296
0.00262482
0.00438114
0.000674219
0.175511
0.00611726
0.000444895
0.0010389
0.00256044
0.00338535
0.0227436
0.00605967
0.00510082
0.00601212
0.00274336
0.000177244
0.000151925
0.176847
0.0202361
0.176263
0.00585708
0.00126107
0.0156495
0.00416847
0.00188161
0.176487
0.176612
0.00171382
0.0173385
0.175308
0.00148236
0.171912
0.00337011
0.00195654
0.0043805
0.000218903
0.0731043
0.010197
0.00469054
0.172693
0.00473776
0.00479447
0.169567
0.170105
0.000671205
0.00027938
0.171615
0.0031911
0.0059364
0.00376957
0.0159843
0.159359
4.48195e-05
0.00072167
0.00365703
0.154026
0.000650639
0.00394522
0.163324
0.0119287
0.17687
0.00133919
0.00179451
0.00128727
0.000652506
0.00432232
0.00278382
0.00143466
0.00388757
0.00329599
5.3765e-05
0.00138555
0.168645
0.159675
0.00187676
0.161523
0.00266216
0.00148397
0.170653
5.81265e-05
0.000744553
0.000673724
0.00025126
0.00322696
0.00172079
0.00251434
0.00862303
0.175241
0.00275083
0.00076258
0.0321513
0.00629852
0.0151002
0.00196817
0.00382136
0.174598
0.000347296
0.00161272
0.00368704
0.175021
0.166733
0.172303
0.00143568
0.000611004
0.176523
0.000611411
0.172612
3.26117e-05
0.000277733
0.175564
0.175766
0.172798
0.00102825
0.00558543
0.00196356
0.00016405
0.00148592
0.0167015
0.00351825
0.000611016
0.120733
0.00458891
0.000125717
0.163043
0.172768
0.0104606
0.00252164
0.000218265
0.170197
0.130696
0.00182237
0.169092
0.000114642
0.070751
0.169868
0.00453143
0.0304777
0.00311362
0.00579351
0.000999013
0.169487
0.00255512
0.000274573
0.0026427
0.00307336
0.167756
0.00264056
0.00174621
0.000339973
0.00163688
0.000425139
0.0211717
0.131962
0.170143
0.0020315
0.166299
0.000148579
0.00660896
0.0213278
0.173326
0.149497
0.000266023
0.00910972
0.176506
0.149786
0.158738
0.0158219
0.00443961
2.88132e-05
0.12605
0.00433365
0.000675494
0.00246161
0.00410535
0.00518462
0.000432162
0.00804987
0.173482
0.00271096
0.000856858
0.187311
0.0710776
0.00252719
0.00439697
0.00684712
0.00305709
0.00206747
0.00332154
0.00432572
0.00271711
0.00163796
0.00401512
0.140973
0.00602794
0.170689
0.170081
0.118834
0.0247463
0.00186007
0.00251895
0.00331296
0.175861
0.00723803
0.000280281
0.000949804
0.0040104
0.000158971
0.00183346
0.000865859
0.175824
0.16905
0.00970215
0.165304
0.136348
0.000386163
0.00261144
7.55681e-05
9.98779e-05
0.00479301
0.150257
0.0016604
0.0131779
0.140417
0.000264449
0.159324
0.0101678
0.000281
0.173227
5.41012e-05
0.00273252
0.0170127
0.149457
0.139509
0.00274838
0.140364
0.00317181
0.000435411
0.00576576
0.000133175
0.171898
0.00010726
0.115071
0.00499031
0.0035865
0.00562646
0.00540481
0.166713
0.170058
0.000656883
0.00059295
0.0217584
0.00037262
0.176926
0.00617977
0.000130647
0.00143371
0.00144812
0.174301
0.000211206
0.0067544
0.00346771
0.0058727
0.175031
0.176448
0.0041975
0.171152
0.00183443
0.0286531
0.00160315
0.00524081
0.00314515
0.175655
0.116283
0.00159358
0.00572648
0.00659536
0.000143337
0.170935
0.00455746
0.165767
0.00262517
0.000227997
0.171279
0.176588
0.162397
0.0104349
0.170333
0.0139286
0.00640268
0.0259368
0.173225
0.00699759
0.17599
0.00566165
0.00564131
0.0556873
0.00347248
0.0237764
0.00504805
0.162238
0.00478776
0.318433
0.00348502
0.176509
0.00517724
0.107949
0.000468231
0.000949645
0.00666243
0.175561
0.00590224
0.00523173
0.00449164
0.00269533
0.225877
0.00661206
0.00192613
0.0062686
0.00352511
0.00498714
0.0048156
0.00749602
0.00223508
0.172646
6.63265e-05
0.000513287
0.0317212
0.00130461
0.215844
0.00891202
0.180676
0.00345843
0.000168373
0.00423649
0.00565121
0.00645757
0.0107418
0.163406
5.20806e-05
0.00123506
0.000509632
0.0163109
0.180629
0.00125217
0.165867
0.00259107
0.00144922
0.0055446
0.0656499
0.0136491
0.000807585
0.00201529
0.173835
0.000143103
0.00227856
0.00229852
0.000608858
0.00521485
0.000236
0.000268114
0.00144263
0.031052
0.000666804
0.00529058
0.00468435
0.161094
0.00207519
0.00263046
0.000264118
0.00388713
0.171342
0.00570512
0.107483
0.321629
0.00643043
0.00102419
0.00280679
0.159143
0.00476173
0.150158
0.000583404
0.00152832
0.162057
0.0106149
0.00508755
0.00392442
0.00164763
0.00553914
0.0052664
0.000299831
0.00302197
0.00267841
0.00226033
0.00268775
0.00159486
0.000481937
0.00138971
0.00638895
0.15046
0.00205912
0.00201612
0.0298973
0.00170254
0.00360866
5.62071e-05
0.0246704
0.00162986
0.00204435
0.01463
0.167325
0.176472
0.0018609
0.171214
0.0022335
0.0163227
0.140714
0.162324
0.00406052
0.156748
0.0218277
0.00586523
0.302587
0.00130883
0.00259022
0.000549239
0.000914011
0.149994
0.00461617
0.00485784
0.00379765
0.000522696
0.171132
0.00342869
0.000860769
0.00487525
0.150718
0.15422
0.00251715
0.00376403
0.00138061
0.157063
0.175121
0.00220444
0.00182413
0.0038381
0.000605378
0.127638
0.00377057
0.0149102
0.00225111
0.00502348
0.17086
0.162803
0.175388
0.00980143
0.00153175
0.00390796
0.0066936
0.00056005
0.00223674
0.158752
0.00198246
0.00261916
0.00193781
0.00186519
0.00507352
0.00632233
0.00426336
0.00272198
0.000448319
0.171552
0.153703
0.00174266
0.00203936
0.175228
0.00145559
0.123444
0.00131331
0.160203
0.00206082
0.00553556
8.62762e-05
0.00345927
0.000211732
0.00149066
5.9959e-05
0.173336
0.00206708
0.00134845
0.000656994
0.00644572
0.00381662
0.00453633
0.17141
0.00143197
0.00342554
0.00342902
0.159635
0.0138485
0.000400391
0.00185181
0.00615281
0.170948
0.148182
0.000720477
0.00383301
0.173019
0.0138761
0.163791
0.00148656
0.00201019
0.00412672
0.0245736
0.000202743
0.00852723
2.65727e-05
2.59315e-05
0.000899943
0.171031
0.151135
0.00429051
0.170317
0.00309829
0.00148256
0.00715042
0.132802
0.000421181
0.0016851
0.00175047
0.000520108
0.173985
0.17227
0.00402796
0.00207415
8.66229e-05
0.0025256
0.000344435
0.174063
0.00219065
0.0321808
0.170339
0.000182113
0.0033254
0.104907
0.000962556
0.104166
0.000251953
0.00589138
0.00249153
0.168307
0.00265964
0.204043
0.131246
0.00272846
0.16341
0.000627846
0.0024748
0.172054
0.00555268
0.173712
0.004941
0.151802
0.169894
0.0111859
8.06375e-05
2.69287e-05
0.0057625
0.00520256
0.00101062
0.161652
0.00544404
0.0045265
0.030586
0.00449568
9.01174e-05
0.00579806
2.60916e-05
0.000142992
0.000334886
0.00285798
0.174928
0.0027396
0.000773898
0.174364
0.17058
0.000450442
0.00251899
0.00429883
0.00185065
0.174502
0.00319649
0.00273629
0.00239639
0.174645
0.00974855
0.000313477
0.0809213
0.000841448
0.130007
0.000226175
0.00173794
0.0820877
0.000100726
0.0025673
0.00157124
0.00187054
0.215476
0.0159838
0.000325144
0.123166
0.174366
0.000923588
0.00059018
0.100921
0.00335415
0.17456
0.00413295
0.171249
0.00308232
0.142641
0.00574547
0.00595982
0.00370657
0.0265842
0.00277273
0.155042
0.00148672
0.176608
0.00398577
0.110756
0.00478412
0.00406713
0.172317
3.51354e-05
0.00494294
0.00451687
0.181783
0.0135633
0.000225582
0.00417568
0.00279764
6.53469e-05
0.00619905
0.145864
0.00210111
0.000110017
0.167638
0.00246939
0.175343
0.000413812
0.172686
0.00392176
0.00658747
0.00250044
0.00104161
0.00464105
0.17281
0.00101233
0.150844
0.173178
0.00162066
0.00525319
0.160245
0.00162895
0.174321
0.00435592
0.00488804
0.00094483
0.130419
0.00660794
0.0019129
0.00400581
0.00337121
0.14283
0.00567612
0.00506597
0.173018
0.00826894
0.000899716
0.00434285
0.102039
0.00168837
0.0159425
0.000647855
0.132533
0.00269928
0.00300351
0.00444058
0.0585838
4.53512e-05
0.0014993
0.132925
0.0051133
0.166452
0.00271805
0.000436985
0.000404942
0.175524
0.00170223
0.173931
0.00158696
0.00157556
0.00144133
0.00708912
0.00139755
0.146521
0.305307
0.0034549
0.00702468
0.00390692
0.00651033
0.00472742
0.000688051
0.00208971
0.176544
0.0313662
0.00137473
0.166
0.000699676
0.170674
0.00586103
0.00938711
0.173879
0.175871
0.166829
0.213392
0.000188381
0.173231
0.0360741
0.000459117
0.000103081
0.00391713
0.0012653
0.132312
0.00120879
0.0100858
0.00544935
0.175231
0.00800411
0.174216
0.00167489
3.12867e-05
0.0143058
0.00192592
0.0048867
0.173031
0.00571105
0.00335255
0.00275085
4.56916e-05
0.160452
0.15839
0.00520281
0.00140688
0.00121311
0.103289
3.67113e-05
0.00750984
0.00255264
0.00397869
0.000421563
0.0133581
0.000105077
0.0060842
0.00550365
0.173596
0.00204853
0.0385263
0.176291
0.155969
0.173282
0.00434616
0.141727
0.00181338
0.172316
0.000150117
0.00606473
0.0002638
0.00393339
0.00534367
0.195926
0.131899
0.150739
2.81773e-05
0.00284222
0.17245
0.00935247
0.00622114
0.0015906
0.00322281
0.174403
0.00440582
8.97089e-05
0.00479837
0.00481407
0.173506
0.0064131
0.173686
0.107095
0.000286772
0.000973246
0.00173154
0.168383
0.000499352
0.00568552
0.00083482
0.00126945
0.176719
4.33462e-05
0.00115455
0.000253197
0.00340725
0.000727516
0.154423
0.000862171
0.00186535
0.00261374
0.00131944
0.173013
0.000595472
0.00136564
0.163282
0.000624695
0.169266
0.00327462
0.00514333
0.00145471
0.00226998
0.00581182
0.00255904
0.175455
0.0040397
0.000724067
0.00199889
0.00134273
0.001439
0.150932
4.44705e-05
0.00154644
0.169808
0.149082
0.000764546
0.174628
0.00254211
0.00229356
0.174274
0.00352008
0.172752
0.00060294
0.00336888
0.00601414
0.00548828
0.000960606
0.111753
0.00480236
0.0059893
0.0280399
0.00983775
0.000279425
0.00388272
0.00433328
0.000129627
0.00234331
0.000724628
0.00101081
0.166132
0.00613354
0.00241081
0.000983887
0.00296536
0.00355361
0.151595
0.171115
7.27155e-05
0.16844
0.0060302
0.000202866
0.000939197
0.175349
0.132607
0.00138336
0.142358
0.00561545
0.00278333
0.00318397
0.000655787
0.00262535
0.0015574
0.0062422
0.0031178
0.000597287
0.000957989
0.173526
0.142867
0.00096181
0.000639102
0.022308
0.00308579
0.0318489
0.17054
0.00379323
0.000823339
0.00183514
0.171458
0.167607
0.151474
0.00207786
0.122686
0.00249467
0.00423582
0.00367544
0.00412689
0.159933
0.000352536
0.175191
0.00145336
0.0008006
5.1858e-05
0.017966
0.0675457
0.00444086
0.176636
9.66313e-05
0.0054709
0.0401509
0.0323364
0.0027409
0.0138005
0.00115861
0.000836644
0.168003
0.00136994
0.00567493
0.00364947
0.0523002
0.00332943
0.00671
0.00497271
0.152245
0.176761
0.00191342
0.00495094
0.00228238
0.0012239
0.00635213
0.0181392
0.00142483
0.00150251
0.000448661
0.00573258
0.00119673
0.00337923
5.90527e-05
4.00607e-05
0.175117
0.000245094
0.00261611
0.165499
0.000311454
0.00363042
0.0358334
0.146482
0.00346499
0.00120237
0.00120069
0.00256748
0.00238536
0.0184666
0.0788996
0.00403989
0.00772066
0.176893
0.00139392
0.000683519
0.000206138
0.000418216
0.170121
0.00231474
0.0030338
0.00231667
0.171453
0.152501
0.00471406
0.00471839
0.176545
0.210039
0.000271921
7.63509e-05
0.00286249
0.00329289
0.000176948
0.131371
0.00389686
0.000263607
0.169814
0.003111
0.0110837
0.17518
0.174036
0.00019772
0.0457895
0.00660967
0.000715072
0.00165899
0.00245927
0.0025697
0.000293355
0.0621481
0.133815
0.00791728
0.166209
0.00227549
0.00469859
0.131133
0.00073587
0.00645512
0.00558919
0.143407
0.151966
0.00398554
0.0389175
0.00487887
0.0047874
0.00555059
0.00397881
0.00531963
0.00528623
0.00225622
0.153201
0.00429415
0.00190249
0.000518004
0.149317
0.155331
0.000222153
0.000281361
0.158084
0.0324948
0.000152886
0.164505
0.0012806
0.138801
0.00202977
0.00264113
0.00289537
0.00181584
0.00131868
0.000271631
0.302829
0.00272955
0.170996
0.00128974
0.00489509
0.171241
0.00227406
0.000277838
0.00777366
0.00529278
0.167608
0.00389905
0.170036
0.000127367
0.00218322
0.00261078
0.00149661
0.000717948
0.00137756
0.00121368
0.08315
0.00153851
5.49413e-05
0.000986145
0.0053841
0.00218643
0.115475
0.168031
0.00180641
0.174608
0.0791339
0.172248
0.00550524
0.00607203
0.000824152
0.14358
0.00213456
2.40633e-05
0.00119755
0.0014587
0.000878179
4.70521e-05
0.00258305
0.00188614
0.00446154
0.00385349
0.176241
0.00513413
7.43879e-05
0.00245584
0.126272
0.00336866
0.00380974
0.1993
0.00523084
0.00407911
0.000292622
0.00445398
0.00979151
0.00100305
0.000762449
0.000993767
0.00485993
0.171369
0.00449516
0.139496
0.0395232
0.00726105
0.00227997
0.00161208
2.70318e-05
0.000179253
0.00256112
0.17569
6.90622e-05
0.00411818
2.76768e-05
0.00250997
0.173769
0.0556875
0.171462
0.00324515
0.00206601
0.00509703
0.119412
0.00189393
0.165668
0.00584167
0.00160754
0.000505957
0.00128378
0.00527923
0.0042994
0.00180028
0.00630707
0.00548413
0.00219512
0.00409035
0.0134891
0.148596
0.000667866
0.000668247
0.00272084
0.00129915
0.000982217
0.00686478
0.00113883
0.000944438
0.00183445
0.310546
0.00508378
0.00421926
0.00387691
0.14867
0.16802
0.17321
0.00259218
0.00518836
0.00753789
0.159181
0.0010205
0.00122082
0.000448377
0.00348472
0.000134887
0.000407765
0.0050315
0.000186434
0.00663712
0.000179404
0.172724
0.0228501
0.00538169
0.00182123
0.00147346
0.00368928
0.00176507
0.17641
0.00260432
0.0204077
0.00143137
0.175453
0.176112
0.000219602
9.36336e-05
0.00186112
6.68299e-05
0.00065457
0.0035879
0.00586891
0.165917
0.00621692
0.176242
0.00379568
0.00255418
0.00100204
0.00461592
0.00304993
0.195552
0.175388
0.0050222
0.0139875
0.00670598
0.00451417
0.1498
0.00141548
0.00119714
0.00243886
8.36864e-05
0.197693
0.00209196
0.175127
0.000890377
0.000350147
0.000199794
0.00391853
0.00186847
0.00508176
0.00435171
0.149017
0.175613
3.2842e-05
0.000149957
0.00342786
0.00340956
0.00103604
0.0280378
0.00491243
0.0186271
0.00359737
0.0173413
0.172517
0.0228565
0.00166085
0.000546095
0.00431219
0.00584168
0.0136252
0.0013648
0.00590825
0.0247477
0.00346864
0.0330237
0.00409607
0.00017546
0.00245364
0.156326
0.125405
0.154449
0.000125634
0.171412
0.123308
0.00612063
0.00381167
0.000225414
0.00518067
0.000115727
0.172786
0.00196642
0.00066677
0.00125868
0.00480274
0.00174227
0.16979
0.00313217
0.0146979
0.176214
0.00358712
0.00253111
0.00579428
0.00389513
0.00347598
0.00581849
0.00137343
0.00158725
0.000886535
0.00435076
0.000538955
3.33326e-05
0.00473947
0.000428334
0.156416
0.000138659
0.00305229
0.00173735
0.00696017
0.00239075
0.000711418
6.18262e-05
5.54136e-05
0.00208876
0.160514
0.0043343
0.00136526
0.172992
0.00142867
0.00301686
0.00143498
0.00502283
0.112497
0.00343389
0.172022
0.172904
0.00140806
2.89192e-05
0.221449
0.00125741
0.00226654
0.00834093
0.175539
0.00162619
0.00585381
0.00521057
0.00386029
0.00156599
0.00471327
0.00613752
0.173347
0.147505
0.00150958
0.119664
0.136462
6.499e-05
0.00423391
0.137762
0.172564
0.175296
0.00587205
0.00118924
0.173174
0.00436622
0.00555382
0.00148714
0.130366
0.166736
0.000431911
0.000936775
0.0011827
0.00142161
0.128847
0.00130095
0.00124207
0.00400896
0.176349
0.0124227
0.00184463
0.175587
0.171371
0.176334
0.172212
0.000163869
0.00582539
0.155756
0.164801
0.00265205
0.00639526
0.0010757
0.00196325
0.133463
0.00301197
0.0131329
0.151546
0.00104073
0.174602
0.173852
0.176612
0.315203
0.000769255
0.00083544
0.00234574
0.00283382
0.0601042
0.0460873
0.000219603
6.20146e-05
0.00671304
0.0035024
0.00163357
0.0105908
0.00180183
0.175934
0.00267003
0.00157803
0.00209119
0.00010383
0.00579541
0.171621
0.000926949
0.000703564
0.173418
0.17683
0.00530795
0.00155668
0.00179503
0.00611429
0.00115799
0.000635272
0.00502343
0.0044005
0.171125
0.173916
0.175167
0.00336231
0.00552042
0.00511044
0.174322
0.00247349
0.0052921
0.00342438
0.144277
0.00116203
0.173746
0.144206
0.00715781
0.00565002
0.000481274
3.26044e-05
0.160034
0.0029903
0.00200497
0.290327
0.00139635
0.00345179
0.0056351
0.174414
0.00246843
0.00170541
0.145226
0.00263891
0.0275253
0.000614495
0.153253
0.00646647
0.175192
0.00223126
0.00386909
0.00637691
0.00262198
0.126263
0.00611993
0.00164921
0.00517014
0.0112173
0.002348
0.173786
0.0113921
0.128981
0.00372872
0.00550425
0.000738788
0.00359846
0.0208278
0.000166274
0.00561043
0.170824
0.124425
0.00795652
0.175561
0.000421877
0.0132191
0.0013088
0.0685948
0.000618526
0.00344008
0.175807
0.175867
0.0011579
0.00358797
0.175042
0.000125899
0.00463122
0.00270825
0.00162637
0.00392153
0.000176306
0.00100073
0.00313894
0.160128
0.00419244
0.0113248
0.17365
0.0101813
9.86509e-05
0.00393559
0.0017366
0.00343147
0.181698
0.00769606
0.176659
0.171537
0.0039809
0.001632
0.00255784
0.175474
0.000544092
0.00179578
0.00450007
0.00230177
0.175217
0.000219831
0.00490763
0.00581717
0.176517
0.17543
0.00677724
0.170706
0.000235601
0.00153919
0.176258
0.138717
0.00440581
0.170925
0.000194283
4.65567e-05
0.000630509
0.0236246
0.00504366
0.000578412
0.140125
0.000991711
0.171933
0.000464966
0.000388434
0.00123234
0.000184877
0.21054
0.204681
0.00163703
0.145842
0.00182322
0.00140577
0.176126
0.00150592
0.0144447
0.00289743
0.00294203
0.000926085
0.00388608
8.61532e-05
0.151949
0.0020872
0.000186595
0.00971262
0.00258543
0.00128235
0.00570372
0.000149746
0.173791
0.0012166
0.173665
0.0052668
0.00250891
0.172603
0.175497
0.15829
0.00401713
0.16151
0.154876
0.00379138
0.00452861
0.288227
0.17316
5.91525e-05
0.0016862
0.16101
0.163894
0.00208816
0.175277
0.165415
0.176106
0.17479
0.000304753
6.02e-05
0.0036756
0.00253025
0.00537125
0.0170944
0.158553
0.00435314
0.163716
0.000315108
0.000225073
0.00255395
0.140176
0.170651
0.0049053
0.0015309
0.167185
0.00105644
0.003959
0.00543584
0.000406875
0.170727
0.00278649
0.174465
0.0213393
0.00452699
0.105244
0.00518203
0.00462992
0.00181408
0.260373
0.0026971
0.0793694
0.00219921
0.000637427
0.00625758
0.173996
0.174946
0.000139768
0.00201685
0.128024
0.0028788
0.00827148
0.174071
0.106763
0.116746
0.00424151
0.000113978
0.154062
0.0489479
0.174321
0.00189147
0.174148
0.127528
0.00129244
3.42414e-05
0.000850898
0.0138437
0.175655
0.00557441
0.118581
0.00557145
0.00112546
0.00407182
0.0231938
0.00120891
0.00532599
0.00185233
0.00508721
0.00522152
0.160914
0.00530542
0.00474529
0.1734
0.00176108
0.00390463
0.147277
0.00947388
0.00508012
0.0013091
0.00180741
0.00315856
0.000806196
0.000260261
0.0034274
0.170116
0.00436587
0.000208285
0.00452263
0.00146029
0.00502215
0.00290367
0.108061
0.0298709
0.00267929
0.000515894
0.00011137
0.170425
0.00639881
0.00159402
0.00176406
0.146135
0.00093719
0.173774
0.175226
9.04819e-05
0.171674
0.176538
0.000580388
0.00126207
0.17071
0.0048841
0.00177284
8.94217e-05
0.000105944
5.11253e-05
6.00964e-05
5.72227e-05
4.92052e-05
0.000108562
7.42331e-05
9.22593e-05
0.00318786
0.0160957
0.000998365
0.000204177
0.132681
0.000597012
0.288392
0.00113881
0.00019436
0.00237095
7.53485e-05
0.157002
0.000556878
0.00463256
0.000841735
0.00401248
0.00606488
0.000283085
0.172559
0.00219126
0.00284621
0.00514527
0.00485198
0.0320971
0.00290643
0.00336019
4.1106e-05
0.00458069
0.00190126
0.156139
0.00542147
0.0121421
0.176039
0.0017349
0.00210226
0.00156233
8.51604e-05
0.000254898
0.0015783
0.00184567
0.000693149
0.000654867
0.173526
0.00428203
0.179669
0.00254658
0.120308
0.176873
0.00174965
0.176172
0.0104902
0.00208188
4.42535e-05
0.0186511
0.000302097
0.157019
0.175789
0.00166999
0.00120347
0.0012482
0.00120801
0.173379
0.138576
0.00615735
0.00204012
0.144125
0.00312266
0.000203727
0.160496
0.00108129
0.00629026
0.00391948
0.00393273
0.00920379
0.158307
0.00225778
0.00787472
0.00279198
0.00162284
0.107833
0.00302756
0.1731
0.172086
0.16048
0.168311
0.00193175
0.000148666
0.0028178
0.172986
0.00584596
0.00526872
0.00206543
0.00121486
0.033282
6.75064e-05
0.000283226
0.00276217
0.131508
0.0246422
0.00317601
0.146776
0.249186
0.00233645
0.0168779
0.171168
0.176843
0.148287
0.000229039
0.17324
0.00666882
0.00654739
0.132973
0.175446
0.00093134
0.000758841
0.000687622
2.61746e-05
0.00279586
0.00439471
0.00050894
0.00100692
0.00391993
0.164873
0.00433209
0.00789715
0.0208102
0.00101108
0.00544854
0.00120281
0.00459555
0.175586
0.00636132
0.00433091
0.00263607
0.00648359
0.00293328
0.00672239
0.00607361
0.157035
0.00105195
0.00259692
0.00101254
0.000661169
0.00778454
0.0158676
0.158429
0.139898
0.227485
0.0016326
0.174399
0.00142991
0.00556455
0.000742271
0.000804618
0.00193911
0.000614702
0.107445
0.00461258
0.12376
0.00223331
0.00343556
0.00297766
0.00508514
0.174857
0.00579969
0.00453468
0.000475445
0.00440842
0.0414752
0.00342093
0.000654937
0.00458388
0.00466071
0.00347614
0.00655432
0.176529
0.00239694
0.00210021
0.175701
0.175548
0.0016821
0.00342908
0.152363
0.0171308
0.0193299
0.174403
0.149547
0.089974
8.42837e-05
0.00472494
2.71072e-05
0.166588
0.000459238
0.00548913
0.00606896
0.00906534
0.00550412
0.0652066
0.00249641
0.00666348
0.176146
0.00556324
0.14768
0.0044606
0.149033
0.145827
0.00282096
0.00160973
0.00102017
0.0107039
0.000397803
0.000556163
0.000914268
0.000770597
0.00595877
0.0178981
0.000784368
0.000770031
0.0069098
0.00337184
0.000134899
0.00568572
0.0034416
0.00188881
0.124303
0.171228
0.00424607
0.00569628
0.0988448
0.175963
0.00657506
0.124009
0.00346182
0.00293535
0.148245
0.175556
0.180281
0.000913513
0.0194001
0.164717
0.00553739
0.139021
0.120894
0.00385841
0.000644591
0.000868123
0.00138234
0.00354845
0.00339307
0.000176618
0.000242083
0.173879
0.175112
0.00277847
0.172608
0.00507288
0.00169739
0.0276905
0.00623247
0.00508248
0.17559
0.0034486
0.00595406
0.00127406
0.000899748
0.171094
0.00230716
0.169531
0.175394
0.00143731
0.000549169
0.000369943
0.00340364
0.152465
0.00124248
0.00340431
0.212591
4.29939e-05
0.164337
0.0017473
0.159625
0.00410679
0.0409561
0.0162935
0.00207616
0.00122605
0.00259444
0.00666357
0.175794
0.00520515
0.00122928
0.00971073
0.0019543
0.0366778
0.0021307
0.00304352
0.00057271
0.000309628
0.17615
0.157867
0.00356366
0.0035073
0.00265445
0.00252361
0.00307345
0.00433927
0.139901
0.000255696
0.00370265
0.12808
0.00205478
0.171809
0.00338317
0.00259755
0.00574706
0.175708
0.00298763
0.000912383
0.0011381
0.00011376
0.00407126
0.00233112
0.00277561
0.0041318
0.0009714
0.00455221
0.000619319
0.0011731
0.00338029
0.00559203
0.00125824
0.00187022
0.00498437
0.000243246
0.000262733
0.00341355
0.00105967
0.000725406
0.175489
0.000745384
0.00158702
0.174983
0.00701525
0.00530907
0.172765
0.174772
0.00405427
0.00708536
0.0857659
0.175722
0.00616632
0.175574
0.176708
0.00347488
0.17314
5.65554e-05
0.00168199
8.06561e-05
0.000335487
0.00350131
0.0342233
0.00397285
0.00259411
0.00412475
0.176412
0.00292703
0.000137015
0.00231035
0.000917545
0.00129303
4.27293e-05
0.00233242
0.00168242
0.000264809
0.00906041
0.000178654
0.170831
0.17195
0.00993136
0.000208085
0.160575
0.15954
0.12191
0.174949
0.00245348
0.0035435
0.00577636
0.0267996
0.000425611
0.0104646
0.00643172
3.97616e-05
0.0013793
0.00202465
0.000541206
0.0021399
0.000403299
0.00293164
0.175425
0.00160144
0.0011551
0.000937495
0.134629
0.00604132
0.00260588
0.169923
0.00198199
0.00180962
0.000286257
0.00114242
0.002664
0.030148
0.00216869
0.175691
0.172932
0.175493
0.000212527
0.0587553
0.000149088
0.00012881
0.00273099
0.00433931
0.00196127
0.00218531
0.00503408
0.0013444
0.173461
0.000388295
0.00473761
0.000221515
0.17322
0.000923127
0.00625071
0.000185195
0.0366877
0.00231379
0.00119628
0.175803
0.172403
3.26216e-05
0.175543
0.000254556
0.00116586
0.001189
0.00231911
0.00453677
0.00136687
0.0016857
0.175441
0.000984831
0.0065787
0.0286264
0.00448783
0.000297679
0.0016828
0.0219702
0.00233128
0.172869
0.00375162
0.00632411
0.1688
0.00118884
0.00224327
0.00197268
0.00578441
0.168839
0.167991
0.000194917
0.128873
0.000188406
0.000774718
0.175794
0.0056004
0.00628207
0.00417643
0.00520953
0.00113255
0.00369971
0.158372
0.0495865
0.000776
0.00337241
0.00203166
0.00247552
0.0531376
0.00174452
0.181494
0.00962435
0.00368242
0.00260777
0.000466824
3.50594e-05
0.00108542
0.00011763
0.00474095
0.149521
0.000960997
0.00421246
0.170652
0.000706272
0.149335
0.174379
0.166616
0.00200277
0.00149123
0.00244302
0.00453744
0.136609
0.00466153
0.0008203
0.00226782
0.00343824
0.0915334
0.00301339
0.00380682
0.00171209
0.175824
0.152971
0.00563301
0.00281274
0.00220213
0.000497959
3.6221e-05
0.0390016
0.000237812
3.83406e-05
0.00104819
0.00266831
0.00196898
0.00574402
0.0360751
0.0048301
0.00244976
0.00273582
0.0042665
0.000254537
0.00224311
0.0177097
0.00631547
0.001288
0.000580157
0.0264654
0.00526153
0.000234466
0.00626975
0.17401
0.150633
0.00355748
0.1354
0.175302
0.00304651
0.000104397
0.150534
0.00269555
0.000566416
0.000160607
0.00051048
0.169015
0.147904
0.153369
0.00291866
0.00125824
0.000725443
0.00181478
0.00233947
0.000241464
0.0126679
0.011992
0.110101
0.170052
0.00485074
0.000980167
4.08607e-05
0.157675
0.00194044
0.00395052
0.000185903
0.000468348
0.00401401
0.105662
0.119731
0.00355218
0.00402137
0.0561672
0.0057789
0.00237428
0.175183
0.000175072
0.00362021
0.151772
0.174785
0.00488722
0.151018
0.00612249
0.145891
0.000150613
0.000218775
0.000908192
0.00156128
0.00100144
0.176193
0.00143828
5.38897e-05
0.00175064
0.00382191
0.00126886
0.000141494
0.00517706
0.00265248
0.00390936
0.00104188
0.168823
0.00370314
0.000958721
0.00120461
0.00518466
0.000105625
0.169451
0.000383539
0.00423144
5.36832e-05
0.0030167
0.0400551
6.62244e-05
0.16532
0.158074
0.17503
5.81812e-05
0.00165474
0.000525481
0.00419846
0.00188986
0.00104707
0.00281569
0.175046
0.000120413
0.00521245
0.00351517
0.00439826
0.00199295
0.00225439
0.145241
0.00158363
0.000894076
0.000222809
0.00387558
0.00119356
0.0027537
0.000944861
0.000191224
0.00191227
0.00282897
0.00638093
0.000957104
0.174479
0.0058514
0.000491872
0.000580516
0.00234399
0.141772
0.112686
0.172583
0.00642411
0.0902788
0.00147378
0.00346739
0.137842
0.00245339
0.175254
0.0034028
0.00142303
0.00243133
0.00184648
0.171594
0.00103886
0.00220378
0.173865
0.175545
0.00576284
0.175799
0.000252514
0.172578
0.00542805
0.000255315
0.0039009
0.00790902
0.00136668
0.0860961
0.173232
0.00129421
0.0165431
0.00175598
0.175123
0.00140554
0.00123429
0.0562893
0.0441582
0.12755
0.000256978
0.174249
0.000227362
0.00385391
0.00144533
8.8482e-05
0.000504138
0.000500186
0.0121719
0.00278451
0.00400197
0.173759
0.00470665
0.166015
0.119822
0.109632
0.0102834
0.0715243
0.00859912
0.00265565
9.83934e-05
0.000833754
0.00139571
0.153228
0.00215079
5.08674e-05
0.0835709
0.176415
0.0107815
0.00209305
0.00604721
0.00158914
0.00130408
0.00320695
0.000275998
0.00181715
0.00118465
0.175981
0.00523427
0.00413572
0.00150823
8.34358e-05
0.00164661
0.000161497
0.00327507
0.170908
8.39364e-05
0.00174571
0.00555172
0.157525
0.000796654
6.64832e-05
0.000218994
0.00703081
0.00920138
0.0019998
0.00452736
0.00140122
0.00181112
0.000566033
0.00156446
0.011919
0.00632524
0.00395238
0.00677672
0.00302337
0.173959
0.0058313
0.00234238
0.00983045
0.0536849
0.175645
0.0058311
0.001858
0.00293737
0.00029538
0.00160141
0.211306
0.000911691
0.00244834
0.164949
0.00106962
0.00102099
0.000889819
0.105048
0.173938
0.174107
0.172745
0.171869
0.00115448
0.138081
0.00356353
0.00294847
0.0118744
0.000212909
0.0151265
0.0404973
0.0121369
0.169236
0.00568071
0.000419739
0.00629427
0.00234506
0.00401778
0.00361774
0.175078
0.00268589
0.00285518
0.000440094
0.0052852
0.00619128
0.00148145
0.171143
0.00361089
0.133981
0.00227515
0.000136779
0.171534
0.000250577
0.170586
0.000821896
0.00123952
0.000583895
0.000969306
0.00217673
0.000353195
0.00406736
0.000966435
0.00559928
0.000714548
0.000773759
0.00197742
0.00151459
2.05237e-05
0.171315
0.0015354
0.00190707
0.167883
0.00018448
0.0010787
0.00184281
0.00184376
0.153973
0.0113052
0.00214289
0.0066548
0.176751
0.0377592
0.000782633
0.00258288
0.00993115
0.00686016
7.56505e-05
0.00067553
0.00054116
0.00232158
0.00209266
0.0225696
0.000161566
0.00108856
0.00233017
0.0012361
0.156861
0.00150609
0.116927
0.00183271
0.175308
0.000169987
0.00531437
0.125393
0.00600553
6.47002e-05
0.153613
0.166958
0.00150897
0.0987114
0.00577485
0.00585569
0.175551
0.00265583
0.0286237
0.000393927
0.00451904
0.00030161
2.09533e-05
0.00143066
0.004953
0.000902535
0.000790855
0.175512
0.169419
0.00431412
0.00446461
0.117664
0.00167829
0.30895
0.000209729
0.00393017
0.00202713
0.000513671
0.175857
0.000628557
0.0328928
0.00165281
0.00269859
0.0040403
0.00608794
0.000623727
0.00110389
0.000200399
0.00588864
0.000129436
0.0127542
0.175013
0.17595
0.000747099
0.173976
0.00152514
0.00533934
0.00247275
2.65107e-05
0.0017448
0.00628228
0.00218777
0.00107732
0.00114467
0.0016081
0.160991
0.175614
0.00420355
0.000214972
0.171202
0.00199228
0.00657596
0.00026819
0.00479015
0.00211943
0.000136361
0.000211175
0.000171335
0.173448
0.0304574
0.00569645
0.00280121