/*--------------------------------*- C++ -*----------------------------------*\
  =========                 |
  \\      /  F ield         | OpenFOAM: The Open Source CFD Toolbox
   \\    /   O peration     | Website:  https://openfoam.org
    \\  /    A nd           | Version:  8
     \\/     M anipulation  |
\*---------------------------------------------------------------------------*/
FoamFile
{
    version     2.0;
    format      ascii;
    class       volScalarField;
    location    "5e-05";
    object      T;
}
// * * * * * * * * * * * * * * * * * * * * * * * * * * * * * * * * * * * * * //

dimensions      [0 0 0 1 0 0 0];

internalField   nonuniform List<scalar> 
23640
(
84.6005
70.8145
251.085
285.539
81.8921
162.731
69.4814
107.961
107.297
129.796
271.103
81.4341
79.9879
76.0931
180.771
162.023
78.3059
246.373
261.457
101.172
268.163
177.157
267.795
267.756
89.2771
76.1319
156.131
108.022
68.7136
90.7984
74.995
299.88
268.245
87.804
103.866
176.493
79.0479
70.7229
124.975
272.717
82.7221
107.851
81.5428
97.8494
291.172
172.045
80.4313
74.9374
128.954
111.385
299.617
248.632
170.846
68.6316
285.728
206.133
131.91
82.5178
59.1787
292.504
74.1691
169.25
277.005
250.969
61.5052
250.642
161.356
86.6986
242.027
83.3067
274.994
87.5494
261.323
70.8435
161.833
299.783
206.317
79.3174
261.869
276.254
179.875
128.087
61.1393
61.3623
61.0844
160.91
248.187
271.817
263.634
178.085
63.3899
85.1755
125.696
261.743
247.494
89.6422
252.3
196.195
106.77
129.523
118.754
68.3597
268.101
72.5611
96.7678
71.5479
281.736
64.4603
82.1686
103.792
71.8534
261.508
90.8828
82.1335
161.678
62.674
181.37
70.8701
85.343
92.1595
269.06
298.172
214.003
298.956
129.501
270.795
299.713
139.882
158.117
80.5571
120.258
116.35
80.4263
140.797
72.6364
271.611
270.164
88.1157
270.77
254.7
105.201
135.457
260.589
271.18
260.806
95.3911
272.352
272.822
63.7075
248.599
116.838
181.533
62.5538
279.852
113.361
70.0019
69.5127
88.2636
152.457
154.729
187.715
157.269
177.333
149.889
62.5947
60.5107
277.876
160.229
282.018
115.528
74.6871
158.838
158.018
81.0281
278.64
278.667
80.4178
158.765
276.435
86.5167
290.981
191.288
88.0013
102.182
72.3188
214.05
127.027
114.805
292.65
104.189
113.814
271.391
297.638
62.1653
69.0785
272.265
97.7171
161.117
163.25
148.082
266.438
95.6751
74.3223
108.047
263.734
60.8105
163.42
267.88
146.541
278.048
78.1769
85.8596
87.2472
60.9558
186.841
98.8497
78.6811
100.269
131.425
80.8282
86.4939
270.991
266.539
81.6222
267.404
89.8037
76.4341
298.687
82.1214
63.3032
84.0171
66.4744
95.7327
84.9055
87.9648
127.879
274.857
98.6038
63.6433
182.152
120.796
167.422
83.3843
108.669
284.307
69.3074
107.778
191.012
276.837
269.983
292.993
76.2013
80.3019
278.787
59.629
272.747
160.965
66.777
283.848
283.307
289.206
73.0208
115.819
81.8872
75.1788
81.9218
144.232
111.291
59.642
245.217
112.872
64.8856
269.543
292.465
138.896
88.5238
72.7404
298.241
251.363
80.4064
271.041
77.6334
212.096
271.85
126.007
170.86
119.649
175.52
68.8526
271.68
96.143
71.9441
97.4677
135.196
270.584
97.1898
80.3211
70.8748
79.1445
88.4372
162.271
251.949
298.579
88.7513
269.557
63.7925
119.002
156.921
287.711
260.895
66.6541
133.588
278.729
261.535
266.053
142.598
112.176
228.292
248.591
146.183
99.7063
87.9649
104.343
107.03
72.2729
131.06
295.089
99.8401
110.969
299.811
213.089
105.908
102.525
115
101.208
89.4771
174.367
110.591
98.8574
78.9677
174.134
256.517
112.955
298.41
271.405
244.699
161.208
81.6868
88.8721
96.0411
283.052
128.573
65.5606
70.622
103.322
62.1503
115.024
71.8693
276.941
271.165
125.589
269.138
254.382
88.6959
97.062
66.2353
61.5774
115.406
261.888
89.2515
150.166
259.261
66.5456
266.338
128.185
65.6638
296.715
126.199
100.103
144.987
260.999
259.07
98.6683
256.09
102.393
72.5632
134.756
60.2641
272.318
63.0897
241.658
174.221
204.96
161.704
118.433
269.764
297.983
77.4141
79.5734
157.467
119.696
277.832
142.212
64.2105
80.2299
76.1295
286.73
68.1029
146.598
144.823
162.892
276.719
280.454
110.846
272.435
81.7542
168.19
82.9184
121.479
94.2549
283.593
242.507
78.4669
173.245
128.814
62.1734
298.728
213.065
269.256
134.314
76.8299
292.971
277.663
267.351
127.738
271.535
151.706
184.253
173.32
296.113
115.53
276.975
198.789
132.11
196.957
134.194
160.403
117.13
267.908
115.33
299.999
155.136
279.045
162.218
237.385
73.046
67.2803
118.678
284.25
132.954
120.639
122.806
90.0773
300
155.942
91.9093
154.993
221.648
117.015
114.394
117.955
93.6744
289.467
96.1299
114.639
172.897
78.6722
299.959
132.194
299.137
124.774
74.7796
101.276
131.279
172.856
144.189
267.802
92.0029
76.3146
74.7713
144.007
299.039
78.0122
269.684
97.7132
76.0811
122.649
210.363
152.213
75.3595
88.8186
274.91
62.3837
92.8818
92.6274
59.5308
117.239
66.3403
71.8435
80.6128
173.62
99.1136
147.439
154.02
266.865
83.5103
89.6307
68.8647
109.114
272.73
170.422
236.905
300
196.904
70.2156
91.1341
265.793
116.156
261.286
58.8762
77.1821
267.495
136.912
199.078
199.422
83.7104
163.36
114.304
64.6737
103.964
156.716
92.5047
98.8861
78.4192
73.3537
79.8855
194.634
261.926
90.189
89.6966
179.504
84.7516
201.383
82.2981
170.695
85.8086
91.2329
168.248
270.077
278.656
156.688
271.943
92.1611
149.382
256.75
267.35
149.566
264.937
166.716
141.022
299.998
78.9757
97.4254
68.8851
70.7034
261.755
202.158
156.571
105.582
79.719
293.167
105.729
71.3845
116.99
261.904
264.643
146.114
105.34
75.4447
265.082
276.972
91.8837
81.7043
109.145
59.4342
249.398
99.0033
140.387
94.0435
117.914
272.339
268.149
284.546
135.827
86.4775
163.182
125.539
104.872
85.005
265.587
92.059
117.159
82.6297
91.0587
158.638
123.066
204.388
98.335
72.8164
298.963
263.502
80.3414
91.1295
277.166
80.0259
246.959
74.4113
266.745
90.4226
197.285
66.2577
120.61
114.599
86.4746
73.2634
287.757
89.4581
75.0066
78.4359
184.594
108.877
221.658
272.062
79.7115
185.53
105.8
266.469
139.392
70.6827
81.6926
132.287
298.479
261.012
62.992
99.4217
294.672
153.04
268.009
81.3984
162.379
100.632
165.166
62.3751
133.642
206.506
188.731
114.087
298.159
262.456
136.601
298.503
103.378
76.485
148.69
252.608
74.6756
84.3555
86.4629
73.5266
275.073
294.203
109.869
91.7978
102.659
87.834
69.5293
286.825
85.4732
178.339
298.361
68.1976
184.971
235.57
70.6486
235.051
78.3907
182.12
96.9484
270.406
90.0223
299.974
251.742
91.1897
268.793
79.647
97.5725
272.518
120.044
273.617
117.827
262.164
271.458
143.962
80.4496
166.477
183.081
168.151
68.4921
267.091
210.456
107.644
170.811
112.025
75.2625
111.305
274.119
72.8808
70.0826
93.932
283.284
101.043
72.9226
275.03
271.555
71.0197
88.6276
234.451
81.8467
275.341
104.327
145.889
86.7447
275.513
142.622
69.8289
220.528
72.4311
254.964
66.1043
88.031
219.07
61.4158
96.2062
84.985
87.9797
299.953
144.005
64.9753
246.729
273.962
70.7241
59.1049
233.247
103.873
285.68
206.568
272.659
93.3403
257.371
110.769
167.214
98.3737
168.134
90.7955
264.959
81.3759
280.239
109.205
239.325
168.981
107.861
299.169
189.694
164.093
206.739
299.043
138.05
64.3796
101.565
91.3459
85.0894
166.173
259.387
90.7205
86.5561
270.074
183.297
275.915
83.7146
272.835
108.964
138.406
96.2688
71.8196
113.678
293.947
68.6283
261.984
273.579
87.2807
152.346
267.04
83.7305
286.911
157.893
117.33
67.6096
259.605
184.294
81.3713
110.071
217.561
263.053
109.299
226.348
272.978
121.596
73.62
111.162
233.645
85.8485
142.894
79.0552
252.335
90.3435
101.598
155.812
199.609
158.721
82.8228
252.487
118.355
269.985
100.24
70.8101
72.011
280.075
86.0492
273.67
84.5891
86.1218
80.0577
157.23
109.14
260.129
299.997
120.915
120.79
109.412
121.191
116.278
87.855
92.571
281.489
169.634
79.64
269.783
72.8751
293.969
191.718
136.3
273.728
276.666
269.908
299.994
70.4109
292.924
186.936
78.1735
62.0294
105.68
82.9697
252.13
75.7338
144.23
127.295
276.136
120.585
286.426
116.906
153.726
139.289
81.471
196.445
273.458
111.628
198.134
153.358
89.9107
266.819
265.917
153.368
80.4828
75.7058
235.554
215.89
122.479
168.453
109.986
69.3071
147.074
63.8131
129.177
112.907
295.622
89.145
178.56
281.253
264.545
274.098
184.879
257.094
90.8875
272.589
63.9658
174.992
69.6698
108.928
148.312
299.64
251.934
261.561
258.158
93.8819
289.983
129.782
184.962
86.8205
105.707
275.7
173.995
62.1179
146.94
173.8
274.235
129.108
273.618
237.483
67.3661
73.1326
80.1706
270.896
70.0568
198.377
65.7294
83.4148
280.376
135.037
71.9646
62.5083
103.844
62.7516
263.798
101.591
81.0167
161.298
74.5274
294.53
59.2368
75.2358
268.312
87.1361
271.273
105.403
189.438
80.8672
87.3724
189.223
97.6197
275.481
206.823
64.0046
82.3415
74.7966
76.2975
261.714
98.8617
83.7682
271.196
261.289
97.7793
285.567
95.8462
87.942
273.846
105.922
294.555
59.4059
104.22
173.034
131.524
100.871
240.212
104.718
190.36
166.235
134.49
65.2891
184.751
218.376
71.999
93.2086
74.7101
68.91
269.654
143.9
129.449
68.4
92.7901
223.909
262.354
297.835
66.2722
270.628
111.853
85.2026
67.6132
284.218
256.599
75.3713
257.752
111.125
115.941
94.6624
78.5168
96.6651
81.9647
176.389
101.366
78.2874
99.4049
273.545
264.047
67.9741
79.7793
162.463
105.225
173.39
294.416
107.677
67.3622
81.502
292.461
270.478
262.001
92.4198
246.268
96.1175
226.743
97.9814
140.888
266.82
89.4511
277.238
76.4153
119.45
82.2494
149.103
209.889
185.961
277.482
63.5305
132.371
192.36
182.804
99.1028
137.917
74.6649
65.9368
270.351
80.743
163.152
102.181
194.794
215.769
183.02
116.826
262.882
277.646
83.0065
105.88
92.5904
82.2331
124.109
163.283
83.9553
82.8727
73.0248
207.648
72.4822
104.211
105.052
123.704
282.446
71.942
99.3687
268.88
89.4312
105.823
178.769
259.963
116.203
75.6874
75.7065
97.7842
94.3633
153.713
216.919
185.639
118.979
278.215
79.8516
103.024
66.9489
74.9392
298.816
92.7098
92.7813
92.7147
291.73
262.445
170.376
171.745
279.177
299.995
63.9613
81.883
101.566
185.311
71.8654
251.782
176.32
68.6063
271.548
121.889
144.878
282.258
288.213
75.6562
188.057
143.153
73.182
88.8328
125.529
89.1682
68.5418
205.985
262.353
119.689
269.441
86.1811
148.055
250.634
75.2078
123.866
111.578
257.794
263.272
99.5124
178.074
115.399
157.943
112.981
201.159
139.401
122.754
92.119
262.838
111.669
87.3072
86.8827
261.303
264.251
67.5583
80.2875
265.493
184.094
60.0108
269.008
85.0386
255.168
90.8801
157.149
102.673
87.0452
73.8065
73.3796
299.998
130.195
272.444
76.7954
115.392
272.624
85.6981
66.4391
119.45
145.266
270.542
187.891
271.741
61.4276
84.6173
99.494
79.8929
102.279
75.3508
75.8717
219.55
83.6588
110.918
72.8212
147.362
91.9628
242.196
270.589
83.4226
275.859
219.002
290.288
110.963
198.552
67.2829
258.341
93.1919
263.593
72.4642
77.0578
70.2723
84.7825
97.2921
81.2004
107.238
156.939
282.182
193.403
80.3449
95.2581
247.955
130.174
190.577
299.693
194.42
102.443
64.1646
147.035
126.656
71.3914
117.044
73.9145
117.566
272.887
128.054
255.77
179.988
121.017
92.7204
78.6098
165.501
68.2688
96.1493
275.198
104.419
222.393
255.48
96.2512
273.921
197.833
272.687
105.555
89.3
199.176
244.332
82.5675
269.565
207.463
82.8976
77.1319
77.1055
236.22
110.834
80.8668
187.283
132.806
92.0089
184.796
136.56
260.913
61.9794
68.3043
98.5137
73.5902
72.2777
152.245
74.3409
73.3423
91.5229
300
119.017
135.633
102.483
260.973
270.646
273.502
96.6768
136.264
118.724
266.355
69.2662
76.8805
73.7344
98.8989
76.3072
70.6531
108.3
64.0368
133.976
70.5145
272.75
180.648
109.712
87.4421
75.9278
125.387
81.0089
281.294
96.7779
160.464
75.7877
276.38
277.057
62.045
65.8996
86.6449
93.3809
78.4182
101.87
113.825
269.699
127.646
278.692
176.55
88.8613
72.6031
107.443
93.5449
299.88
275.062
193.312
147.761
119.77
208.551
261.35
79.5844
72.2684
89.3088
126.689
299.948
90.1933
283.682
73.0355
71.5046
71.1078
109.62
81.3488
118.623
154.813
261.142
275.38
147.953
76.7258
104.726
119.746
71.7025
167.567
117.794
161.394
100.202
147.651
273.721
157.853
79.1856
68.9357
169.681
142.164
148.337
74.9955
111.823
158.451
96.5505
177.876
114.363
75.4701
175.254
265.305
251.13
264.25
65.1111
272.746
246.928
188.669
108.935
64.3949
180.156
77.9283
272.971
82.8532
68.5141
72.7451
108.511
86.5654
271.586
93.7268
145.235
278.594
145.046
170.093
172.699
101.367
155.529
110.982
80.9285
83.011
72.7132
167.171
70.505
149.789
207.103
67.2411
264.723
59.7164
127.283
84.8171
130.279
169.229
120.894
83.2493
79.1653
89.7385
266.866
225.048
80.5526
292.99
79.9803
93.2689
107.301
118.987
240.378
207.32
290.819
293.161
75.7669
225.988
300
78.1409
87.2886
132.39
275.428
84.916
130.545
107.367
109.159
78.0032
204.903
115.061
289.539
260.302
76.8202
244.548
255.77
99.261
108.418
254.587
273.685
276.571
189.769
72.1597
293.474
153.11
133.568
76.6607
253.046
269.759
67.731
73.8282
72.1181
75.8044
250.43
73.5319
82.2035
109.587
276.709
144.012
81.5275
278.728
292.014
278.598
293.701
75.4513
110.636
265.037
269.118
90.9157
118.338
70.2641
90.382
252.907
188.322
145.231
262.524
69.6927
284.38
288.673
278.747
299.998
71.9927
65.5834
97.2908
92.2914
204.859
196.787
72.0689
72.379
127.458
104.815
83.5484
143.04
80.7521
277.476
155.408
78.1977
91.9936
65.7174
121.198
272.978
67.2286
77.945
294.92
277.875
172.922
83.0665
87.5307
122.478
73.6916
78.4048
108.521
208.704
271.964
299.644
283.744
149.467
204.023
182.981
296.272
168.343
119.586
103.847
262.24
77.1681
273.59
258.622
133.944
158.481
68.6568
175.529
266.136
102.775
90.7011
299.996
75.4458
139.835
129.978
286.076
95.3884
84.899
259.141
131.337
166.176
59.8099
264.393
113.478
282.596
93.1474
98.6941
176.731
140.329
248.944
196.749
90.5583
121.905
130.145
88.9728
274.848
131.057
249.615
107.768
133.909
64.5283
106.619
151.21
60.5993
134.155
298.09
247.662
158.183
275.214
112.268
149.489
78.478
210.09
59.9165
184.611
278.06
277.442
75.3525
105.129
277.058
85.865
103.569
90.5361
82.4542
109.818
71.9415
68.9777
103.52
266.201
109.141
132.324
274.347
127.38
119.697
109.372
84.8511
110.626
299.353
120.705
280.62
297.802
109.154
78.2428
106.903
280.884
78.1854
85.9576
154.2
95.876
277.377
67.8033
118.611
190.542
281.209
275.337
144.954
272.187
68.0734
82.9381
276.64
255.216
102.617
298.135
72.2095
86.9239
86.2787
158.227
120.1
99.9468
259.33
78.6846
298.414
72.9095
106.058
82.6991
76.4598
300
300
83.8939
259.22
87.2367
77.1757
276.211
82.6428
139.238
91.6732
104.152
67.2529
108.498
83.5986
262.812
89.5494
66.1068
125.732
96.5963
79.3074
197.398
63.5874
274.93
107.168
296.751
160.083
103.593
273.042
275.267
265.62
109.606
267.1
264.054
98.787
116.045
299.997
273.364
128.844
78.839
266.813
268.732
90.1399
277.563
268.877
282.482
275.621
82.7739
67.9672
192.605
96.6984
154.318
151.891
266.18
210.068
268.545
68.6364
76.6212
157.731
256.463
271.676
116.291
77.1558
270.1
73.9123
195.076
120.645
108.953
298.701
116.224
274.281
152.123
115.256
236.436
118.641
159.227
87.6316
299.964
98.413
216.579
84.7824
78.3011
183.908
286.139
283.346
59.2054
83.8657
249.909
145.637
121.346
273.742
236.722
242.047
108.283
62.6189
263.624
191.059
275.075
89.6461
286.866
254.734
79.2666
182.923
67.7282
138.01
276.607
111.128
244.75
173.357
74.9044
152.467
155.699
73.4881
145.924
88.3301
116.209
193.675
267.019
143.473
162.882
273.445
87.7518
99.4616
259.698
126.674
119.661
77.9573
86.9737
96.3675
72.3409
66.3681
123.607
296.383
159.2
63.2218
116.333
80.282
122.305
91.8114
237.8
171.395
97.8308
75.9458
61.7723
295.022
153.999
86.9733
87.183
259.798
67.4197
274.486
275.861
65.327
272.86
281.056
71.9288
72.7489
271.638
117.305
85.2782
64.1676
61.153
122.306
68.3266
89.4892
147.693
60.2084
62.3152
61.5631
94.2312
143.501
106.976
66.4713
252.515
73.5208
299.998
82.6776
68.0928
87.2156
77.3392
265.195
76.2347
108.726
72.214
102.054
125.202
68.9028
272.852
91.57
90.8089
122.413
111.751
181.888
91.9205
95.4019
192.116
151.238
87.3947
264.58
115.632
144.435
278.382
84.8945
89.8303
81.982
87.1706
62.7374
83.3963
82.5867
61.9384
68.8014
273.759
221.89
299.114
97.1496
245.125
278.738
90.4493
298.647
128.261
84.6165
151.531
156.916
68.7422
265.017
278.227
90.6783
74.4636
83.0245
75.5271
287.489
259.843
133.452
84.0445
258.198
101.192
67.5259
266.915
82.9522
131.52
101.583
205.54
129.673
267.59
92.2157
121.598
102.969
86.6971
237.509
97.8797
274.115
292.787
266.843
270.969
89.1533
77.4271
91.6091
273.157
207.638
185.355
89.4496
73.8762
172.039
81.9944
78.9266
90.92
252.095
160.194
136.394
259.9
299.957
150.214
149.723
271.908
278.399
260.623
78.2695
287.922
141.498
125.308
252.696
280.332
67.2774
63.7168
62.6384
158.451
90.9814
102.263
109.446
72.5463
189.54
268.53
174.842
135.223
161.399
68.9942
194.152
75.8171
119.697
276.444
123.383
180.599
97.1991
186.625
104.189
114.28
199.069
265.285
72.3003
96.7747
68.934
68.1416
156.298
151.214
267.714
256.378
299.989
83.9016
274.137
76.0038
119.311
63.4655
72.2751
82.5892
60.0548
237.752
138.639
246.492
87.0153
105.893
101.739
116.963
275.78
139.853
134.662
88.6259
167.635
192.518
203.833
61.429
151.547
117.42
96.3605
180.256
276.974
91.3124
89.9013
275.246
280.692
79.6473
106.393
263.239
149.499
150.976
275.227
261.566
224.752
86.498
109.131
155.73
270.055
71.4722
137.901
117.244
124.584
111.077
207.032
96.6601
121.784
276.072
110.364
260.595
103.089
261.109
259.416
179.727
77.8642
69.3282
130.535
71.2266
80.596
76.8689
64.0707
119.047
160.133
73.7041
74.4115
164.139
104.177
78.8305
218.511
123.535
88.1479
246.856
272.209
101.563
133.95
231.289
275.803
126.096
247.673
96.3026
94.0329
260.816
279.7
299.712
67.2221
152.141
268.456
116.257
255.414
245.497
104.796
75.783
73.8433
84.5431
195.488
103.612
73.3454
62.0867
286.445
282.522
101.543
273.706
116.797
84.2155
164.537
192.254
106.424
278.946
105.283
122.276
76.8893
66.9177
298.45
91.3203
271.106
274.995
76.0456
79.0235
83.3851
104.417
262.804
78.5367
104.394
299.975
162.174
268.275
84.9588
266.036
170.85
183.969
152.03
83.8329
76.316
91.0028
155.623
276.74
127.654
76.4788
134.237
83.3733
176.371
91.1162
96.5208
107.298
68.8369
278.359
265.452
96.8511
104.742
89.6243
88.6283
103.763
181.381
255.824
70.4838
104.528
249.304
91.8559
298.026
95.8538
96.9591
161.691
280.984
97.007
66.9569
74.35
72.281
110.252
100.637
90.6095
100.525
79.866
117.791
68.2024
74.9662
153.45
176.135
76.8371
80.9292
140.749
73.2621
68.5764
96.0099
81.3598
79.4455
275.26
64.7022
83.4689
282.814
116.638
156.254
273.918
284.726
110.34
135.877
224.214
280.802
197.362
275.124
298.196
106.56
290.07
76.7076
79.298
76.1501
83.0576
105.037
177.399
180.931
96.8812
101.534
281.684
102.773
61.7047
92.8401
71.2555
73.4647
182.003
93.0253
87.3237
68.4195
138.694
60.7388
271.813
273.001
157.519
63.1832
266.938
267.586
246.059
274.639
88.043
111.25
139.455
165.346
71.4375
128.483
149.785
173.136
85.2804
89.8687
68.6258
90.673
72.3397
91.2802
277.179
77.7196
72.0077
67.6788
256.711
144.907
89.502
296.676
82.6421
86.9918
66.9463
71.585
137.307
174.058
91.635
278.729
294.607
277.364
65.7805
202.967
71.6753
74.3217
98.2106
161.976
89.2887
86.7689
173.342
79.8039
273.659
83.2497
113.16
66.0649
296.014
67.204
129.825
69.9391
175.947
86.3488
72.4158
278.789
294.316
234.519
278.314
66.3786
71.8106
75.3753
88.1121
139.868
75.0772
89.2918
276.084
68.3716
143.585
176.866
122.408
110.038
79.5474
170.352
86.7514
273.989
107.456
186.633
270.574
75.2156
93.0814
88.2007
115.446
270.618
270.785
65.8632
250.299
74.534
64.0323
275.327
109.724
132.084
170.433
159.833
74.6481
103.382
266.846
196.159
73.3407
153.279
89.3908
88.9212
199.318
84.8297
299.72
125.136
210.671
101.442
69.1514
213.316
74.6531
79.729
189.197
261.52
69.8632
101.108
294.459
71.8505
261.223
284.662
269.777
90.1285
78.8375
95.4854
176.856
254.035
168.548
73.383
92.5669
123.96
227.913
100.046
108.288
84.4639
279.008
262.976
174.83
100.753
85.1781
79.9079
153.126
179.078
65.6859
150.574
73.1952
128.035
104.316
114.401
174.757
112.717
88.2245
149.374
113.406
73.5627
93.5564
154.62
125.698
73.8454
78.2883
162.556
151.013
65.8598
153.704
296.191
261.765
109.267
254.401
276.102
92.6685
67.7481
262.023
180.876
79.4503
71.0176
72.3096
270.766
260.031
263.573
103.49
76.9729
76.2129
81.1785
93.1973
72.5204
134.808
140.403
238.901
271.962
116.151
73.1101
178.079
265.018
82.089
109.405
70.713
72.7542
111.979
235.98
244.73
117.862
118.83
201.132
142.295
157.657
276.629
71.3985
145.15
262.449
284.804
144.535
262.278
188.972
259.144
60.2317
67.96
69.5248
77.437
68.9447
279.015
76.4861
122.19
85.1961
106.092
72.9232
60.537
125.796
89.728
101.154
102.833
270.541
172.765
72.5143
72.433
171.243
79.4875
271.593
72.3287
104.319
130.52
101.007
186.905
66.8306
269.271
265.586
282.621
86.8804
84.6937
74.8903
215.693
85.9974
73.856
99.5679
282.497
58.4728
121.738
112.291
111.23
89.715
114.585
258.581
77.932
79.6833
64.9378
99.2939
83.793
113.16
83.8651
73.5303
88.6552
91.336
192.37
71.2277
284.429
205.418
110.477
78.7564
95.1425
257.435
240.459
273.626
124.752
227.116
86.055
106.222
254.813
94.2152
277.15
193.482
79.5673
148.732
81.4255
272.324
70.1374
84.9683
286.29
279.268
146.732
276.647
65.0911
273.639
132.975
80.7297
143.021
145.994
84.6585
222.506
292.764
73.2074
144.908
81.1463
282.916
83.1351
76.4056
200.316
187.111
248.648
112.909
286.009
62.9516
104.358
80.3619
79.2419
73.3439
73.1381
145.917
90.8374
108.849
287.627
116.975
269.574
244.217
238.357
128.753
211.615
136.423
100.289
78.2675
69.6553
75.4876
262.957
90.6337
126.232
219.928
281.108
128.997
90.8436
137.738
77.9625
78.0051
102.081
67.4133
86.3847
72.2198
281.432
117.339
101.846
79.7349
113.465
78.4144
71.3353
105.281
271.968
63.2582
85.4006
163.454
264.923
67.493
66.4711
61.7398
116.122
129.998
89.7682
123.927
80.3451
85.9659
72.7915
82.9505
164.58
185.898
109.188
125.544
94.3091
275.149
121.474
94.2005
135.269
194.352
277.157
121.743
86.9106
94.2726
71.4012
107.25
299.999
66.9684
87.9233
268.586
72.2875
71.4492
66.6581
236.027
274.193
287.387
273.89
299.502
83.382
254.913
105.883
103.078
156.99
62.1135
149.803
187.979
134.014
271.218
173.533
80.4655
153.874
93.4506
118.41
106.229
276.045
134.345
92.0332
69.6976
113.699
124.464
79.2952
271.942
103.23
255.399
93.938
77.0276
298.624
68.8697
271.628
96.9652
72.3736
75.4475
77.9187
94.1981
71.3809
100.579
71.4001
153.259
72.6335
68.9597
88.381
78.1812
165.05
272.088
76.8923
88.1973
270.343
65.4463
70.2762
86.292
86.7232
263.272
146.947
95.1381
169.839
277.819
190.819
91.9579
89.883
126.432
147.129
107.056
61.5448
89.9853
88.3743
93.1277
166.379
114.64
70.4062
100.756
115.417
265.092
81.744
243.102
86.4266
277.241
77.1465
122.716
247.767
204.852
95.2976
263.242
270.257
83.1247
231.33
139.351
147.197
279.045
89.9396
174.727
83.7084
123.153
107.43
161.865
79.7664
148.841
66.9177
64.4632
278.903
271.588
168.049
103.425
243.583
79.5141
300
67.8006
135.529
88.2744
78.413
282.058
92.0067
182.592
83.8214
96.859
125.684
126.438
60.0655
71.9148
63.4606
131.853
72.9856
142.538
282.964
276.767
107.897
287.272
86.3131
144.792
88.1953
261.184
80.5163
139.575
91.4071
73.8021
71.604
84.1652
267.338
275.231
113.831
62.5246
272.777
82.8454
129.051
82.3463
104.98
91.9705
61.6383
64.1276
69.1396
287.564
178.199
110.231
116.807
298.447
103.589
186.221
84.2736
83.6519
128.86
299.594
90.0169
70.3653
265.878
143.064
299.966
64.4724
260.165
258.778
186.571
98.0718
180.558
267.281
78.4863
143.571
282.453
82.853
286.378
275.963
84.0261
278.957
83.8751
269.684
100.806
127.847
84.2081
91.3212
121.42
206.819
258.793
115.423
71.6077
288.04
91.0356
91.2023
75.7333
81.9288
284.563
85.7998
234.045
265.197
102.353
115.845
94.8471
140.075
96.7562
273.958
171.849
90.686
273.121
137.825
129.226
222.668
86.1486
87.9567
200.19
261.672
272.117
92.7843
279.235
67.4157
102.272
144.741
253.205
97.8154
96.0985
153.929
146.169
87.2692
160.689
88.1579
72.2465
102.03
135.308
273.123
61.5825
278.826
87.2093
64.7166
93.3703
62.2589
181.217
76.9731
101.588
174.08
85.6017
86.9319
256.331
112.679
66.9693
252.999
117.859
103.385
130.781
189.594
282.504
298.548
94.0661
234.456
149.06
112.232
66.6387
94.5585
202.523
134.815
168.036
155.047
83.3143
75.7988
71.412
198.475
76.1633
246.713
101.478
154.435
68.7983
266.929
132.971
86.0745
81.5304
69.3318
90.0739
164.723
82.0408
258.772
76.6854
110.706
76.9286
68.7826
227.854
101.347
279.734
260.799
118.509
64.7389
84.2696
96.1179
63.4421
102.054
269.476
134.589
93.6395
138.255
274.03
63.9084
77.1449
288.92
101.129
67.113
153.239
87.2079
102.694
67.6375
137.924
264.74
156.493
276.134
65.9663
278.47
161.538
174.255
270.789
101.339
282.418
165.837
149.053
112.043
60.9773
80.6994
66.3402
151.072
197.378
297.703
274.213
110.968
202.98
75.6545
264.964
77.9756
99.1261
114.148
140.908
185.782
112.126
62.9331
103.59
86.4351
64.8141
69.0073
87.2035
116.407
107.414
152.664
159.901
103.547
110.804
256.677
92.1177
103.475
87.8667
114.86
270.834
178.974
87.6526
66.2652
159.509
98.3682
90.4605
272.711
208.773
97.5603
81.5144
102.035
290.417
276.971
84.9236
100.822
98.207
90.1617
101.48
68.1396
70.4403
281.288
90.8306
151.058
247.176
128.28
141.138
274.973
99.5076
263.277
141.489
69.7564
243.159
160.004
145.616
275.88
68.0232
278.368
280.481
269.517
77.2143
296.216
126.966
113.903
99.0419
85.2648
114.808
299.804
299.151
97.4226
74.3141
98.8103
107.496
277.134
170.243
162.843
288.822
259.141
67.9643
152.69
277.493
251.788
89.4978
279.634
132.192
95.1637
89.7558
272.349
106.378
111.356
288.801
80.5529
121.6
277.884
177.062
108.21
286.87
71.4177
272
83.922
142.986
140.035
163.566
98.5548
74.9254
99.1846
89.6554
111.232
85.6031
242.303
104.284
95.6356
261.324
67.6106
113.338
78.1601
132.716
155.365
91.6668
60.2375
168.517
138.727
102.907
153.218
94.9874
112.769
108.031
64.8981
61.629
66.1145
285.813
125.132
139.451
152.985
245.759
213.377
293.835
111.056
182.904
99.9186
135.759
133.068
187.154
94.2243
82.872
259.147
225.46
65.6654
155.114
76.0488
277.693
233.275
74.2847
89.7457
163.576
162.986
293.239
141.571
93.3876
61.1301
80.8546
64.2031
220.862
75.5319
174.375
254.988
142.22
123.056
247.991
195.205
91.6279
138.464
127.529
266.853
297.237
101.268
256.555
296.634
299.653
225.497
266.608
85.9732
234.828
92.4409
142.952
79.4796
90.7374
155.602
123.86
104.249
74.0326
207.758
94.3372
104.346
68.2409
250.154
209.123
95.3378
281.572
71.6482
270.91
298.602
299.73
73.5935
145.765
192.345
88.5165
77.4862
101.775
277.957
138.454
273.503
265.162
60.9097
59.1791
72.4911
64.2516
60.7472
200.117
65.3642
181.182
61.9039
100.048
112.584
229.551
87.7065
76.0573
226.268
107.211
114.213
101.157
133.803
152.974
247.968
127.421
162.96
89.9026
141.196
78.4339
214.925
164.163
136.541
137.835
86.1225
146.632
263.309
114.05
125.087
179.774
155.986
78.7474
144.397
96.6607
66.1189
76.5101
232.002
288.003
81.1212
90.8674
68.2207
70.166
69.7324
68.7004
67.4612
251.607
263.065
239.339
261.292
210.461
244.604
87.0693
65.2906
105.747
102.679
111.821
63.3781
62.3206
116.296
243.713
71.1013
102.672
203.892
110.643
140.254
78.5134
106.393
66.4211
152.964
98.8285
75.2775
271.471
86.6684
163.087
140.751
62.7192
74.1215
88.7621
251.4
287.296
273.694
81.4726
202.089
105.664
88.899
98.158
107.477
118.949
298.242
277.065
94.4291
86.0078
263.048
252.261
70.2695
288.731
260.499
76.762
110.116
280.172
262.927
124.072
95.5375
129.6
258.31
143.553
164.065
127.087
184.62
114.275
273.634
163.079
64.8556
272.438
94.9936
123.81
84.3296
168.278
76.8272
66.3071
111.988
119.279
133.988
99.6827
278.763
67.8902
266.443
266.72
72.6499
157.592
263.438
255.72
271.305
145.079
74.1548
105.204
108.562
88.8826
77.8548
134.532
158.408
127.195
274.517
233.185
84.3573
79.2627
106.665
260.888
121.265
67.0702
62.5009
99.4407
161.571
258.201
108.395
113.54
88.2608
120.076
224.993
92.6065
128.297
81.1846
75.3324
276.512
266.893
90.1069
152.293
268.185
143.363
269.14
100.315
242.157
95.4679
272.679
150.567
149.096
298.194
216.209
290.205
94.2266
98.2184
109.051
67.8593
109.627
85.8407
120.718
68.1981
109.112
129.121
126.241
123.261
187.057
260.607
282.206
172.889
278.119
289.25
282.344
106.542
67.2088
176.415
270.641
94.2445
90.8449
81.1109
95.5308
75.0102
90.4459
95.8167
257.793
269.032
240.32
151.759
86.4204
79.6187
71.387
280.55
216.797
112.6
85.3822
261.839
102.243
172.01
267.185
71.3302
76.3447
86.8056
77.0035
104.275
78.4125
149.293
74.517
282.735
134.999
121.173
282.701
210.71
258.618
292.308
292.33
162.135
278.737
80.3719
201.376
269.24
67.4787
202.621
267.318
208.276
215.854
138.95
196.365
98.8814
140.591
76.2503
68.3308
95.4938
76.643
115.851
88.775
69.1487
84.0775
162.34
80.9764
152.812
148.632
94.3055
74.5668
74.5882
75.2287
86.241
100.158
68.3917
89.7444
74.3153
126.002
171.264
105.117
113.781
211.131
88.4093
102.639
283.057
280.809
136.681
103.503
156.12
122.097
236.45
81.1169
116.258
71.7642
194.041
93.6821
200.163
127.965
85.617
151.701
135.477
109.58
74.8253
296.698
248.128
91.1718
138.408
109.511
148.731
277.689
128.901
263.17
166.594
142.996
85.3199
87.9315
61.2956
296.456
143.466
260.3
120.134
102.478
268.939
208.369
69.3108
281.989
102.596
267.759
85.6325
73.3837
155.172
89.7506
269.493
61.969
104.933
229.158
145.201
183.277
211.415
135.293
127.139
93.8576
111.094
89.5211
108.601
160.455
249.766
244.447
299.099
276.108
68.9231
78.7413
88.688
179.864
83.3816
214.141
83.8381
299.577
118.4
73.0496
78.8986
159.687
82.9728
147.579
258.718
202.985
86.5288
241.555
275.178
87.4023
180.742
126.798
103.848
92.2428
177.66
69.8116
102.825
270.512
266.63
212.192
204.965
299.933
125.721
78.7235
73.0232
123.484
173.965
237.41
91.2857
106.379
90.2265
95.8256
164.909
277.2
89.5266
267.951
128.875
107.096
105.997
66.0283
85.3733
166.309
76.9048
141.238
267.797
159.217
93.3484
125.303
247.317
62.5444
62.5087
116.62
122.728
89.128
135.109
145.186
75.1822
265.327
93.0986
299.938
67.4346
271.697
177.013
203.944
120.051
85.9574
267.382
184.544
263.101
70.9301
111.051
112.203
155.666
71.1672
129.445
106.231
95.7452
269.639
263.249
133.076
75.6179
81.8951
81.1102
108.81
266.016
64.0969
120.519
266.864
163.556
154.114
226.898
267.316
74.3153
278.614
147.42
280.98
138.194
80.9165
82.2832
134.362
260.158
79.593
140.697
195.001
139.659
119.378
100.909
239.577
273.673
85.647
98.1426
143.641
165.913
240.43
166.485
263.292
79.1105
66.9289
125.908
222.609
158.455
78.7044
299.995
81.8959
154.801
288.394
84.2204
190.126
224.882
115.133
77.9294
60.776
59.1826
64.1899
226.647
61.6059
137.508
61.1099
116.572
63.7745
209.066
66.003
61.7972
72.4449
168.401
132.255
133.677
108.53
108.858
85.7561
84.3154
73.9833
267.54
96.6236
299.916
298.983
157.454
265.981
81.225
69.4639
156.614
170.782
123.483
255.039
230.716