/*--------------------------------*- C++ -*----------------------------------*\
  =========                 |
  \\      /  F ield         | OpenFOAM: The Open Source CFD Toolbox
   \\    /   O peration     | Website:  https://openfoam.org
    \\  /    A nd           | Version:  8
     \\/     M anipulation  |
\*---------------------------------------------------------------------------*/
FoamFile
{
    version     2.0;
    format      ascii;
    class       volVectorField;
    location    "5e-05";
    object      U;
}
// * * * * * * * * * * * * * * * * * * * * * * * * * * * * * * * * * * * * * //

dimensions      [0 1 -1 0 0 0 0];

internalField   nonuniform List<vector> 
23640
(
(-607.201 2474.94 0)
(54.2628 2782.54 0)
(481.247 425.34 0)
(-17.6052 129.265 0)
(326.617 2595.49 0)
(-499.866 1896.28 0)
(-139.194 2775.84 0)
(-163.105 2439.11 0)
(-300.881 2553.31 0)
(2222.57 711.621 0)
(-34.5774 434.544 0)
(927.411 2533.64 0)
(280.769 2637.47 0)
(294.247 2632.98 0)
(-1242.09 1326.82 0)
(-467.523 1928.49 0)
(988.586 2414.77 0)
(-104.638 1038.06 0)
(42.5252 733.361 0)
(-1403.51 2152.23 0)
(-85.7308 523.78 0)
(676.644 201.232 0)
(-82.6479 537.461 0)
(140.211 507.838 0)
(-320.027 2571.29 0)
(297.636 2726.04 0)
(-99.1996 2113.26 0)
(820.229 2353.15 0)
(1163.53 2407.02 0)
(486.424 2502.15 0)
(140.012 2670.18 0)
(-6.51736 8.91151 0)
(-89.8153 519.532 0)
(-1304.08 2317.42 0)
(-1817.34 1640.53 0)
(-1475.67 1119.38 0)
(977.579 2446.49 0)
(1075.49 2429.08 0)
(1504.17 1073.2 0)
(93.1528 342.531 0)
(1383.93 2279.58 0)
(-279.765 2525.4 0)
(472.914 2632.83 0)
(-1608.57 1083.95 0)
(-11.1823 84.4403 0)
(921.627 1691.33 0)
(497.222 2571.69 0)
(707.796 2642.51 0)
(2219.81 715.765 0)
(-162.191 2400.57 0)
(3.01587 20.7828 0)
(-61.8716 1013.34 0)
(-1653.74 857.203 0)
(-643.287 2573.93 0)
(-15.553 127.269 0)
(831.483 182.102 0)
(-796.801 2042.67 0)
(-129.882 2665.36 0)
(29.7017 2833.04 0)
(29.8645 93.339 0)
(103.799 2661.89 0)
(-580.596 1895.38 0)
(40.1608 244.267 0)
(-57.856 971.924 0)
(239.025 2838.29 0)
(-62.1055 978.383 0)
(-278.002 1901.35 0)
(-349.367 2604.1 0)
(150.946 1050.37 0)
(455.023 2651.81 0)
(72.9859 267.932 0)
(-1250.53 2331.82 0)
(-144.575 713.388 0)
(-869.123 2589.34 0)
(402.354 1912.55 0)
(-7.09184 12.437 0)
(-263.248 44.2198 0)
(305.386 2613.75 0)
(42.5881 722.401 0)
(-36.2465 264.61 0)
(850.225 1642.21 0)
(1702.28 1528.28 0)
(76.2546 2833.22 0)
(74.7768 2845.29 0)
(215.21 2848.98 0)
(-1724.51 433.194 0)
(-65.2955 1021.67 0)
(106.506 352.994 0)
(-171.749 633.172 0)
(-1199.89 1397.49 0)
(-227.165 2822.27 0)
(-211.808 2613.9 0)
(-1871.63 1310.63 0)
(-121.303 709.976 0)
(19.2836 1039.99 0)
(38.489 2589.2 0)
(-56.8842 945.167 0)
(1335.43 361.841 0)
(-79.5095 2382.2 0)
(-1967.95 1051.8 0)
(2003.43 1136.5 0)
(-663.091 2584.36 0)
(139.43 487.516 0)
(918.504 2516.88 0)
(1953.79 1536.74 0)
(1110.05 2410.67 0)
(43.532 158.554 0)
(-788.628 2617.59 0)
(-551.597 2640.15 0)
(-50.1794 2449.49 0)
(272.541 2667.46 0)
(-139.484 709.536 0)
(223.914 2619.49 0)
(1438.42 2270.14 0)
(1548.28 1300.52 0)
(-1229.75 2458.6 0)
(-1298.72 1272.44 0)
(-382.97 2652.15 0)
(-652.315 2485.13 0)
(429.504 2488.82 0)
(124.209 423.643 0)
(4.93985 35.0725 0)
(1155.26 500.601 0)
(-1.82925 33.4231 0)
(978.611 2103.65 0)
(111.104 402.218 0)
(3.84374 18.7515 0)
(1800.77 1173.37 0)
(-471.034 1973.81 0)
(1370.72 2317.63 0)
(195.126 2398.39 0)
(1836.34 1488.07 0)
(205.066 2641.43 0)
(-686.086 2173.54 0)
(-1011.68 2391.27 0)
(85.9927 323.95 0)
(-70.1216 458.392 0)
(-329.399 2593.12 0)
(32.3021 445.975 0)
(-62.8512 893.533 0)
(-83.0408 2401.93 0)
(-805.934 2032.87 0)
(-152.732 730.183 0)
(-29.9342 432.448 0)
(176.708 719.141 0)
(-126.948 2566.94 0)
(-50.5728 385.912 0)
(86.4229 345.235 0)
(-260.736 2805.52 0)
(187.677 972.429 0)
(-148.615 2378.77 0)
(437.82 1445.81 0)
(80.1663 2866.37 0)
(-11.4584 196.31 0)
(1373.18 2030.78 0)
(-1270.39 2288.25 0)
(-128.155 2779.37 0)
(-521.123 2602.53 0)
(240.667 2003.12 0)
(-77.7801 2120.85 0)
(-1145.61 1276.42 0)
(-1895.61 629.862 0)
(-1482.24 1107.64 0)
(-238.734 2033.88 0)
(1158.93 2467.94 0)
(1279.55 2441.53 0)
(55.7313 205.671 0)
(-1357.66 1445.6 0)
(41.5826 157.402 0)
(1851.89 1474.88 0)
(712.333 2642.62 0)
(1686.93 1226.8 0)
(394.768 1913.54 0)
(-586.725 2638.8 0)
(46.2598 203.776 0)
(-48.147 201.815 0)
(1378.84 2318.54 0)
(1527.99 1150.65 0)
(-36.6132 260.028 0)
(-109.476 2611.09 0)
(-9.11904 85.4667 0)
(1034.85 183.833 0)
(-328.823 2591.64 0)
(-907.309 2410.78 0)
(1168.79 2370.87 0)
(245.598 1487.56 0)
(-785.79 2223.57 0)
(-1986.33 1281.56 0)
(-33.0885 101.405 0)
(-889.895 2390.63 0)
(-428.077 2280.17 0)
(56.8018 418.679 0)
(-7.32924 40.7886 0)
(80.2559 2831.99 0)
(916.374 2588.35 0)
(103.494 352.768 0)
(1969.55 1516.39 0)
(-860.464 1855.11 0)
(1437.67 477.948 0)
(1254.26 1741.97 0)
(-9.49634 592.891 0)
(1681.46 1222.54 0)
(1085.45 2436.05 0)
(-277.811 2524.79 0)
(-68.3713 666.778 0)
(154.116 2831.59 0)
(1241.38 389.506 0)
(-86.8371 533.06 0)
(1810.1 1069.64 0)
(53.8489 205.594 0)
(317.186 2602.75 0)
(-371.308 2605.57 0)
(8.05124 2499.91 0)
(167.757 2844.22 0)
(448.594 1276.23 0)
(-7.67986 2546.1 0)
(680.839 2609.31 0)
(-1375.43 2191.01 0)
(-188.912 2232.98 0)
(-2051.28 1577.19 0)
(-59.9027 2534.93 0)
(48.709 434.395 0)
(-15.4717 589.283 0)
(959.403 2515.81 0)
(-140.756 527.22 0)
(153.547 2646.17 0)
(-366.608 2712.99 0)
(5.02942 33.7653 0)
(-1996.99 1490.85 0)
(-226.158 2822.18 0)
(-530.853 2521.38 0)
(-976.109 2640.47 0)
(1402.67 2141.55 0)
(-403.559 2636.26 0)
(-505.04 2604.83 0)
(1669.62 1583.28 0)
(73.9773 272.922 0)
(-1.08803 2580.96 0)
(-258.844 2803.64 0)
(1004.93 1490.32 0)
(1957.4 1187.73 0)
(-1459.72 1388.78 0)
(1416.17 2267.74 0)
(-261.809 2477.64 0)
(-16.2738 140.485 0)
(722.796 2584.86 0)
(108.19 2432.97 0)
(1269.42 322.758 0)
(-3.13782 256.688 0)
(123.254 436.383 0)
(28.4485 89.1832 0)
(827.446 2599.47 0)
(496.274 2572.92 0)
(46.8343 200.553 0)
(52.4479 2838.07 0)
(90.2353 339.407 0)
(-1032.96 528.542 0)
(-899.921 2614.55 0)
(-38.387 142.383 0)
(-40.2962 146.323 0)
(-17.3725 100.417 0)
(622.904 2583.32 0)
(1937.27 1287.55 0)
(-476.793 2659.12 0)
(1417.39 2187.4 0)
(480.431 2636.57 0)
(512.456 2160.54 0)
(-101.96 2354.42 0)
(51.0977 2837.9 0)
(47.2643 1070.87 0)
(2114.49 1000.79 0)
(1415.27 2169.67 0)
(119.753 401.865 0)
(-31.9238 100.004 0)
(1828.34 1123.35 0)
(-1198.73 2378.77 0)
(1184.88 2378.84 0)
(5.53483 35.1736 0)
(11.6433 967.742 0)
(-609.563 2636.75 0)
(110.849 392.904 0)
(1762.76 1970.98 0)
(297.316 1495.8 0)
(-23.768 409.203 0)
(-388.599 2223.7 0)
(699.323 1836.03 0)
(-84.5828 2323.73 0)
(948.646 1558.91 0)
(-541.243 2716.79 0)
(-22.5083 415.287 0)
(-201.061 2546.52 0)
(-986.765 2436.93 0)
(-35.6314 2577.81 0)
(-222.927 2199.46 0)
(33.1234 452.397 0)
(202.44 2482.52 0)
(1300.28 2360.62 0)
(-820.292 2555.17 0)
(296.163 2702.43 0)
(946.706 2329.73 0)
(-1310.9 1450.34 0)
(-61.1191 951.655 0)
(4.10528 32.6294 0)
(-198.979 2624.76 0)
(-73.5664 478.57 0)
(1300.83 2396.95 0)
(1763.7 1558.46 0)
(-979.694 1852.4 0)
(-15.5712 111.264 0)
(-157.033 720.376 0)
(875.718 2583.58 0)
(1808.14 1207.22 0)
(-46.3073 202.824 0)
(89.8635 723.611 0)
(-33.7542 602.701 0)
(572.338 2154.57 0)
(-1991.17 1292.12 0)
(-620.015 418.752 0)
(19.6881 1019.42 0)
(-413.744 2096.41 0)
(674.83 2267.04 0)
(-1189.8 2395.15 0)
(-1833.21 1616.17 0)
(796.413 2376.25 0)
(-1031.31 2427.55 0)
(-1956.39 1049.82 0)
(35.0999 113.112 0)
(-117.957 2500.62 0)
(551.536 2266.72 0)
(10.0531 14.1807 0)
(-333.365 1458.63 0)
(-184.173 2454.27 0)
(-920.495 2408.42 0)
(-607.117 2372.23 0)
(-198.237 2472.31 0)
(-204.526 2617.7 0)
(1286.66 307.5 0)
(2112.81 1064.96 0)
(195.115 2458.53 0)
(295.322 2702.83 0)
(-1401.65 348.301 0)
(-177.741 819.969 0)
(1347.68 2043.45 0)
(-5.70129 37.3161 0)
(81.0169 408.622 0)
(-89.3144 1071.15 0)
(-724.015 1923.27 0)
(858.573 2557.65 0)
(230.829 2641.61 0)
(1366.96 2183.75 0)
(-40.131 148.228 0)
(-2004.54 983.414 0)
(-868.343 2570.84 0)
(-362.918 2676.45 0)
(-1822.67 1639.42 0)
(1194.84 2431.75 0)
(-41.6687 2338.39 0)
(-860.86 2492.69 0)
(43.2832 243.95 0)
(45.0776 429.421 0)
(-745.459 2246.99 0)
(-57.6712 497.686 0)
(-68.5688 899.471 0)
(978.447 2220.11 0)
(-35.9115 2580.13 0)
(1884.99 2047.66 0)
(1526.32 2233.36 0)
(2164.61 899.683 0)
(23.5003 723.387 0)
(-401.491 2534.25 0)
(-1722.49 1126.91 0)
(195.69 716.306 0)
(885.829 2613.74 0)
(-33.394 593.931 0)
(983.058 2114.4 0)
(-875.565 2580.87 0)
(29.008 88.4513 0)
(-1506.72 1285.69 0)
(-105.777 2500.24 0)
(417.093 2182.34 0)
(140.485 724.338 0)
(196.869 733.544 0)
(-21.1637 2543.24 0)
(-170.95 832.505 0)
(-50.8109 2501.55 0)
(-1139.88 2258.2 0)
(-1939.85 1035.06 0)
(1334.54 2396.49 0)
(98.3894 354.071 0)
(-1508.35 2183.8 0)
(14.6242 1134.08 0)
(-675.373 1737.51 0)
(-454.284 77.0282 0)
(-1741.19 926.217 0)
(-1507.44 1745.25 0)
(120.449 450.833 0)
(-6.04401 37.959 0)
(1130.03 2396.34 0)
(527.265 2575.71 0)
(-904.495 1879.26 0)
(-1163.95 1637.56 0)
(59.0701 200.599 0)
(783.815 1975.32 0)
(1382.39 2300.78 0)
(369.028 2608.27 0)
(-293.72 2723.19 0)
(30.8794 122.976 0)
(1128.33 2451.79 0)
(1660.02 1286.38 0)
(265.421 2106.85 0)
(-811.264 1849.37 0)
(-5.91095 259.5 0)
(-44.1009 175.326 0)
(-487.973 2378.23 0)
(-46.035 384.195 0)
(1347.22 2339.49 0)
(759.997 1824.72 0)
(-100.386 2631.06 0)
(686.734 2207.84 0)
(1310.74 2241.88 0)
(-38.2854 144.628 0)
(23.6559 1118.23 0)
(399.24 2696.86 0)
(-815.294 1711.24 0)
(2169.46 777.513 0)
(-1284.64 2379.75 0)
(-3.96155 36.0111 0)
(1146.62 500.687 0)
(-60.3811 491.589 0)
(62.7061 2224.47 0)
(1196.89 2259.6 0)
(13.6838 72.555 0)
(-56.4569 214.116 0)
(-90.5233 549.581 0)
(-20.5084 2353 0)
(77.6929 404.904 0)
(-1658.38 1181.94 0)
(1339.66 1241.79 0)
(1192.16 1421.96 0)
(31.4634 98.1283 0)
(-643.04 2346.34 0)
(48.2469 239.914 0)
(1350.46 920.965 0)
(-2131.2 681.947 0)
(-232.182 1694.54 0)
(-235.024 2192.1 0)
(-821.473 1889.62 0)
(2074.88 1043.75 0)
(18.2279 544.871 0)
(2166.98 896.535 0)
(-0.203995 0.666058 0)
(-280.396 2014.88 0)
(44.716 197.552 0)
(-711.098 1873.46 0)
(-24.5646 1164.92 0)
(-1165.54 2380.06 0)
(-534.704 2733.49 0)
(1764.27 1555.17 0)
(-38.8638 139.086 0)
(2005.5 975.097 0)
(671.629 2220.4 0)
(-383.969 2232.41 0)
(747.809 2529.24 0)
(0.248862 0.118736 0)
(1637.52 1242.33 0)
(419.084 2495.42 0)
(-1656.21 1188.02 0)
(540.836 102.251 0)
(-2135.85 944.578 0)
(-436.29 2270.88 0)
(143.065 2438.82 0)
(-367.859 2525.01 0)
(-15.2547 97.7789 0)
(1771.04 1614.13 0)
(903.646 2352.15 0)
(-706.278 1803.69 0)
(468.218 2657.02 0)
(4.45643 4.11785 0)
(1825.01 1198.82 0)
(2.66935 48.8998 0)
(-139.729 2298.86 0)
(-1371.18 2086.15 0)
(-221.093 2546.24 0)
(-2142.77 699.224 0)
(1085.82 1558.03 0)
(1908.85 1026.67 0)
(-119.018 524.176 0)
(1835.52 1480.17 0)
(-135.432 2666.27 0)
(-573.516 2614.38 0)
(350.755 2191.98 0)
(-5.66516 54.5362 0)
(575.637 2569.05 0)
(115.086 440.339 0)
(-150.692 2527.42 0)
(-292.823 2723.07 0)
(-1895.34 1327.77 0)
(-402.613 1477.68 0)
(1788.4 1230.64 0)
(1030.75 2458.58 0)
(148.001 2583.7 0)
(-23.7843 306.806 0)
(-1291.37 2350.76 0)
(-165.454 2598.71 0)
(-60.8854 2568.44 0)
(42.0315 2833.86 0)
(-1531.93 1829.92 0)
(974.236 2497.79 0)
(-1006.2 2452.25 0)
(447.499 2601.92 0)
(838.394 1723.72 0)
(678.652 2259.26 0)
(-1997.86 665.337 0)
(-1903.31 481.013 0)
(-94.8476 563.757 0)
(-576.141 2646.39 0)
(699.894 2546.13 0)
(964.124 2546.96 0)
(-254.012 2433.84 0)
(-32.5089 377.253 0)
(-868.272 1750.91 0)
(19.1875 1204.82 0)
(-0.0886746 0.316511 0)
(-1140.34 1144.66 0)
(-460.312 2723.55 0)
(273.634 2622.12 0)
(111.26 594.243 0)
(638.459 2282.28 0)
(135.712 717.435 0)
(50.6187 2840.22 0)
(-335.21 2714.77 0)
(-138.028 527.338 0)
(1693.92 1329.11 0)
(-424.791 715.092 0)
(-1045.93 262.889 0)
(-125.879 2625.64 0)
(-1732.08 891.957 0)
(1961.66 1269.9 0)
(-795.535 2576.09 0)
(970.796 2434.77 0)
(-79.0193 1934.23 0)
(-186.354 2563.26 0)
(-120.514 2517.93 0)
(401.129 2696.1 0)
(558.554 2634.65 0)
(477.237 2646.8 0)
(-1168.74 1176.27 0)
(172.376 688 0)
(462.937 2580.18 0)
(462.119 2588.84 0)
(1075.48 1457.44 0)
(-394.224 2638.6 0)
(-880.692 187.072 0)
(-2027.39 1548.23 0)
(1254.66 1404.46 0)
(-557.872 2537.13 0)
(292.726 2634.08 0)
(-1415.44 1389.36 0)
(-65.8767 462.862 0)
(44.0982 204.889 0)
(47.6632 1690.58 0)
(-88.2034 384.303 0)
(-168.105 2603.32 0)
(1273.14 1717.64 0)
(-64.195 847.447 0)
(-85.468 550.447 0)
(408.236 2062.43 0)
(69.0594 631.674 0)
(1371.58 1292.53 0)
(1952.85 961.055 0)
(0.496031 0.887777 0)
(316.701 2597.03 0)
(-156.017 2527.33 0)
(-1169.24 2371.79 0)
(-536.83 2632.06 0)
(29.9779 726.471 0)
(1354.61 582.235 0)
(-1821.82 432.458 0)
(2080.18 1238.33 0)
(630.247 2584.33 0)
(11.1879 69.9928 0)
(1.11514 2490.38 0)
(-857.517 2493.28 0)
(641.591 2283.05 0)
(87.127 714.546 0)
(167.238 612.068 0)
(25.9888 2139.58 0)
(2072.34 1229.55 0)
(338.191 2726.89 0)
(64.0702 627.331 0)
(-16.6376 252.088 0)
(360.356 2602.43 0)
(1406.48 2290.66 0)
(-249.744 2461.26 0)
(40.5399 2836.84 0)
(25.1714 1003.81 0)
(-1371.52 2174.05 0)
(-759.479 2131.35 0)
(-372.291 2524.84 0)
(-2136.14 905.698 0)
(-41.8713 388.707 0)
(17.8816 537.499 0)
(-37.7947 137.86 0)
(1755.05 1255.21 0)
(-363.952 2607.45 0)
(1613.56 445.993 0)
(-1418.41 1759.41 0)
(784.032 2194.13 0)
(-513.328 2636.38 0)
(116.232 599.431 0)
(495.257 2438.46 0)
(-140.346 2380.97 0)
(809.313 2548.89 0)
(9.11046 2628.21 0)
(-554.682 1933.33 0)
(-1471.14 1763.79 0)
(-1210.77 447.729 0)
(-17.2571 2542.89 0)
(600.422 2628.62 0)
(-2.19931 35.5768 0)
(-64.6964 673.645 0)
(1304.18 2361.94 0)
(-472.866 2594.46 0)
(-16.1904 247.835 0)
(-426.013 2592.4 0)
(35.6526 1046.87 0)
(976.996 2563.42 0)
(-38.4995 580.435 0)
(-279.759 2563.44 0)
(1379.08 929.125 0)
(1769.7 2088.52 0)
(166.56 2341.78 0)
(-1287.78 1481.85 0)
(-111.406 2598.49 0)
(-2009.68 1705.59 0)
(-17.6197 111.355 0)
(38.9388 2589.74 0)
(1006.65 2543.64 0)
(1140.53 2393.63 0)
(1315.28 1251.49 0)
(-252.646 2462.59 0)
(1012.28 426.36 0)
(-89.9961 378.36 0)
(91.5562 2642.34 0)
(1194.68 267.272 0)
(3.07106 2492.94 0)
(-38.8878 589.109 0)
(-860.587 2106.85 0)
(-1269.33 2481.49 0)
(862.471 2556.41 0)
(-1792.75 1288.38 0)
(7.42548 37.9042 0)
(180.903 712.615 0)
(-192.515 2857.3 0)
(-1386.39 2157.85 0)
(-34.3034 106.186 0)
(1773 1201.03 0)
(-117.589 517.56 0)
(436.467 2590.21 0)
(-23.9821 1657.09 0)
(-186.884 2551.07 0)
(-1053.38 1696.25 0)
(-1224.23 2445.73 0)
(-1937.32 1024.94 0)
(269.762 84.3097 0)
(-286.041 76.13 0)
(531.602 2240.59 0)
(-9.13025 44.0021 0)
(174.504 673.493 0)
(-441.257 2140.58 0)
(5.35484 34.6895 0)
(53.8572 2487.12 0)
(-367.969 2713.31 0)
(-1436.82 1462.88 0)
(-5.68097 942.675 0)
(709.041 2598.67 0)
(-173.817 2625.2 0)
(381.154 2638.39 0)
(-515.869 2612.39 0)
(-23.3907 302.461 0)
(28.9694 86.9927 0)
(-1.66286 2440.08 0)
(284.147 2636.71 0)
(1614.78 1162.72 0)
(-507.429 2603.37 0)
(-1110.83 2411.86 0)
(-27.6986 120.963 0)
(-1443.06 2238.77 0)
(914.708 1621.73 0)
(-5.23737 36.3182 0)
(1198.72 2393.79 0)
(1130.29 208.703 0)
(5.70446 1184.39 0)
(212.339 2745.55 0)
(33.5057 1231.34 0)
(1156.14 2359.98 0)
(813.028 1559.14 0)
(1187.7 2398.23 0)
(111.837 429.306 0)
(151.987 2646.1 0)
(-0.517818 0.925814 0)
(-5.8281 960.327 0)
(1440.43 2149.64 0)
(126.313 474.295 0)
(1150.94 2441.06 0)
(-408.103 2659.01 0)
(94.2384 341.712 0)
(1807.32 1449.38 0)
(-81.6772 319.996 0)
(1410.46 1876.31 0)
(-120.337 698.86 0)
(110.388 381.507 0)
(1878.21 1022.39 0)
(-2030.07 1826.05 0)
(-677.027 195.609 0)
(-1339.41 1073.48 0)
(720.599 1768.33 0)
(-686.172 2699.13 0)
(-95.2897 556.223 0)
(1191.66 795.753 0)
(1942.32 1442.86 0)
(-695.612 1832.57 0)
(2102.12 1045.06 0)
(1872.24 1893.63 0)
(-1185.33 2204.79 0)
(271.086 414.299 0)
(-1484.03 2151.17 0)
(801.648 2587.39 0)
(-1814.33 1799.45 0)
(-15.7179 150.698 0)
(136.728 2544.8 0)
(-1021.36 2422.31 0)
(41.7938 298.691 0)
(-100.713 390.457 0)
(1298.22 2288.74 0)
(231.295 2641.67 0)
(434.21 217.136 0)
(1341.35 2313.3 0)
(37.9364 290.309 0)
(23.8187 2508.12 0)
(-2.19992 2120.7 0)
(-558.156 2595.41 0)
(35.851 286.152 0)
(-1877.08 966.287 0)
(929.665 2562.01 0)
(246.371 1374.19 0)
(-904.71 2447.89 0)
(209.512 851.075 0)
(1019.19 2573.36 0)
(-568.505 2472.69 0)
(144.443 1434.18 0)
(1527.59 2242.12 0)
(-330.33 2526.12 0)
(-575.289 2502.53 0)
(505.105 2619.7 0)
(4.60608 5.01933 0)
(183.354 2221.47 0)
(-726.926 2629.69 0)
(-56.4377 1048.4 0)
(82.3812 300.279 0)
(-537.098 2626.94 0)
(74.0295 2834.99 0)
(-39.8487 1218.55 0)
(-40.6446 2498.24 0)
(-30.3633 129.389 0)
(1005.6 316.873 0)
(-28.3296 380.969 0)
(1042.9 2388.55 0)
(132.494 816.784 0)
(-1177.56 2193.54 0)
(1003.48 1630.17 0)
(569.344 2522.61 0)
(-995.42 1696.56 0)
(376.372 2608.12 0)
(164.076 600.702 0)
(433.515 2597.78 0)
(-45.8809 175.842 0)
(28.0774 2454.99 0)
(-5.97765 1176.48 0)
(-1369.57 497.428 0)
(-2038.37 1263.82 0)
(0.649115 32.5939 0)
(785.392 497.475 0)
(-1449.55 507.323 0)
(1261.84 455.596 0)
(6.64474 56.0916 0)
(-888.187 2076.62 0)
(968.318 2565.03 0)
(-1015.6 2331.41 0)
(95.0092 2631.87 0)
(1860.19 1650.83 0)
(-1548.63 1133.69 0)
(176.35 756.553 0)
(-230.334 2564.79 0)
(2029.29 2049.91 0)
(114.998 442.308 0)
(-17.2287 1420.91 0)
(-48.9991 268.153 0)
(876.092 2477.68 0)
(-94.1601 338.34 0)
(-236.737 2379.89 0)
(-917.683 1951.14 0)
(-180.602 2542.7 0)
(272.318 2667.34 0)
(2158.32 931.283 0)
(34.7775 105.365 0)
(-685.876 2696.79 0)
(80.1442 713.678 0)
(-59.697 337.709 0)
(-605.336 2495.11 0)
(-1933.06 675.024 0)
(145.458 540.364 0)
(-403.721 2648.85 0)
(31.9214 122.473 0)
(1785.34 499.113 0)
(637.384 2239.41 0)
(-277.674 2775.4 0)
(-201.434 714.634 0)
(-1193.16 1288.98 0)
(-621.757 2599.19 0)
(19.1849 2446.77 0)
(241.818 72.2808 0)
(162.538 559.881 0)
(761.567 2367.24 0)
(690.118 536.831 0)
(87.8047 337.403 0)
(346.796 2409.31 0)
(890.833 2468.96 0)
(2103.74 1073.21 0)
(35.6578 1211.51 0)
(-480.859 2558.73 0)
(190.229 2227.01 0)
(1148.16 2416.47 0)
(39.6075 945.424 0)
(352.247 2616.95 0)
(204.25 2521.58 0)
(475.145 1959.31 0)
(-184.796 1677.59 0)
(-1279.6 1050.88 0)
(-502.803 2567.17 0)
(51.9297 940.63 0)
(-448.638 2191.49 0)
(-3.10673 475.755 0)
(416.359 2499.63 0)
(1343.42 2381.76 0)
(-1164.78 2358.67 0)
(-12.1563 192.796 0)
(-458.068 2557.46 0)
(84.1649 305.683 0)
(368.813 2613.7 0)
(-15.6653 2569.96 0)
(-94.9754 2642.78 0)
(-1410.56 1395.08 0)
(208.705 2386.07 0)
(-22.7427 769.561 0)
(0.392002 1.2148 0)
(166.895 2341.59 0)
(-1734.75 1525.04 0)
(-253.606 2405.21 0)
(-1972.28 1216.09 0)
(1393.6 2046.78 0)
(601.064 2547.89 0)
(-434.166 2512.4 0)
(46.172 156.473 0)
(-482.562 1922.38 0)
(407.613 2629.41 0)
(-1.7513 482.465 0)
(-1111.75 2438.88 0)
(-10.6641 64.5364 0)
(1378.76 1027.39 0)
(-1879.79 1093.83 0)
(-82.1178 314.422 0)
(48.2479 247.84 0)
(-57.2449 471.342 0)
(0.768373 1.21891 0)
(-1207.14 2334.39 0)
(34.9425 112.805 0)
(-957.792 1426.89 0)
(1092.54 2570.05 0)
(-1538.15 2196.92 0)
(-2031.73 1286.8 0)
(-134.792 2594.89 0)
(57.5231 946.81 0)
(113.981 2665.82 0)
(-1866.33 970.439 0)
(700.721 2127.77 0)
(-39.0559 266.986 0)
(391.614 2366.63 0)
(-27.7764 123.704 0)
(-151.278 2304.93 0)
(1058.95 431.401 0)
(-558.898 2227.46 0)
(-838.573 2559.39 0)
(-1319.82 655.206 0)
(-81.7754 287.417 0)
(1394.36 2048.42 0)
(894.92 236.139 0)
(-62.1085 2005.17 0)
(-1744.18 1075.93 0)
(144.745 545.019 0)
(-28.2397 607.476 0)
(1264.38 454.531 0)
(500.503 2622.92 0)
(114.303 2665.47 0)
(-12.2548 1197.97 0)
(668.693 497.781 0)
(1638.92 1691.23 0)
(-34.5365 1780.71 0)
(-247.155 2341.08 0)
(-1352.55 2344.13 0)
(-1661.53 1269.96 0)
(-1520.5 2164.6 0)
(2218.67 735.643 0)
(-1727.09 1606.19 0)
(35.4983 110.912 0)
(259.857 2575.63 0)
(411.236 1845.19 0)
(-42.5078 166.164 0)
(-69.5873 642.835 0)
(42.6934 327.721 0)
(-676.031 1420.49 0)
(-178.074 805.926 0)
(417.801 2490.22 0)
(96.0568 345.275 0)
(1299.85 2390.74 0)
(1564.55 1016.01 0)
(971.032 2568.62 0)
(11.7224 2453.67 0)
(-1965.68 704.773 0)
(-0.707543 18.7162 0)
(44.1638 952.826 0)
(-127.088 713.647 0)
(-476.459 464.5 0)
(-1803.9 1802.5 0)
(-15.2296 94.1518 0)
(1586.34 1668.94 0)
(-1279.09 1149.91 0)
(262.375 2557.38 0)
(78.0914 2457.96 0)
(19.9318 284.478 0)
(-1570.03 403.411 0)
(1616.39 2159.89 0)
(1928.29 614.281 0)
(-543.141 1788.28 0)
(39.9483 324.306 0)
(993.244 1958.75 0)
(-76.7388 326.077 0)
(-38.1242 1161.48 0)
(850.526 2581.15 0)
(756.15 2535.05 0)
(1309.16 2348.68 0)
(47.8925 438.707 0)
(-1233.11 2259.81 0)
(-1190.59 912.581 0)
(-221.042 2756.43 0)
(-146.003 2602.38 0)
(47.1062 171.206 0)
(1259.93 643.427 0)
(757.876 2652.7 0)
(-918.709 2526.34 0)
(-1746.79 1736.23 0)
(-178.072 2820.14 0)
(-79.5493 662.855 0)
(485.539 2315.49 0)
(-867.508 2563.56 0)
(-55.6887 1903.02 0)
(902.178 2584.27 0)
(-33.5888 102.242 0)
(79.1094 2838.52 0)
(442.555 2713.59 0)
(22.925 531.791 0)
(649.161 2551.69 0)
(53.9184 423.916 0)
(146.237 2513.35 0)
(1516.98 672.495 0)
(449.175 2594.7 0)
(-1674.55 2033.34 0)
(-1279.71 962.514 0)
(455.726 2506.62 0)
(60.4495 272.373 0)
(-1156.97 397.163 0)
(12.6845 2810.23 0)
(-558.091 2633.55 0)
(942.652 2563.01 0)
(297.33 2726.09 0)
(139.235 704.676 0)
(1616.76 1152.82 0)
(602.91 2498.89 0)
(-103.248 401.935 0)
(-30.8167 738.974 0)
(-538.808 2340.58 0)
(-29.0074 130.271 0)
(202.066 2512.19 0)
(-1677.1 2063.78 0)
(81.4179 307.976 0)
(-92.1324 2471.68 0)
(33.5348 100.036 0)
(28.3889 2837.37 0)
(-94.6224 2454.72 0)
(829.755 1700.34 0)
(705.305 2076.91 0)
(458.936 2398.34 0)
(0.012644 1161.77 0)
(-873.408 2395.54 0)
(-1127.68 1257.1 0)
(-657.448 1897.14 0)
(-1762.79 1320.58 0)
(-862.533 2583.91 0)
(-1029.56 269.362 0)
(-491.682 244.645 0)
(1585.83 2229.84 0)
(-112.437 2563.54 0)
(1085.98 2427.95 0)
(-166.281 2774.46 0)
(120.216 448.664 0)
(807.713 1952.93 0)
(-69.1594 2301.32 0)
(-335.984 2766.55 0)
(-1368.18 2263.14 0)
(295.196 69.3722 0)
(78.4978 703.593 0)
(12.6185 46.885 0)
(1843.45 1927.88 0)
(111.748 419.416 0)
(972.921 2260.04 0)
(1391.99 2105.01 0)
(-463.938 2747.1 0)
(-36.7715 140.453 0)
(-198.137 776.567 0)
(725.523 2638.54 0)
(-70.5685 822.949 0)
(1358.74 2053.86 0)
(148.019 2359.88 0)
(1315.08 2231.75 0)
(1108.55 2385.37 0)
(335.169 2500.45 0)
(-78.1094 2635.52 0)
(-1235.43 1440.62 0)
(34.7933 2512.85 0)
(-501.366 2595.12 0)
(-478.605 2423.69 0)
(-74.7044 331.404 0)
(146.394 496.723 0)
(-292.116 2771.73 0)
(1133.41 2410.63 0)
(1177.01 1621.81 0)
(977.689 2432.62 0)
(739.247 1792.19 0)
(-10.0669 61.5419 0)
(-1689.54 1764.41 0)
(177.582 2783.65 0)
(791.461 2586.79 0)
(15.0153 76.4159 0)
(-115.005 419.093 0)
(135.822 697.939 0)
(-440.179 2509.34 0)
(-58.9931 1056.22 0)
(306.989 2480.57 0)
(-304.207 108.987 0)
(566.728 2529.28 0)
(-356.432 2142.02 0)
(-142.393 544.144 0)
(965.748 2165.42 0)
(-9.06874 247.16 0)
(-131.996 2733.75 0)
(638.514 2267.51 0)
(-2116.74 1603.25 0)
(905.252 1946.64 0)
(-348.903 1501.42 0)
(-639.842 1436.61 0)
(-57.341 216.369 0)
(-1559.84 2020.04 0)
(-2145.5 684.579 0)
(-863.275 1400.9 0)
(1041.7 1426.69 0)
(194.63 2452.79 0)
(-527.202 2213.9 0)
(13.3068 2682.65 0)
(-218.397 2758.64 0)
(116.588 431.556 0)
(-519.316 2574.83 0)
(-1735.95 946.569 0)
(-1974.81 1465.95 0)
(377.544 1680.03 0)
(442.401 149.586 0)
(-1277.25 1274.65 0)
(-2139.99 950.897 0)
(27.0844 695.888 0)
(59.5627 204.311 0)
(-1571.44 2190.46 0)
(857.678 2357.99 0)
(335.36 2553.35 0)
(230.203 2593.85 0)
(1287.43 1882.46 0)
(1531.54 1262.24 0)
(-17.388 2583.4 0)
(-501.229 2564.12 0)
(-625.559 2582.82 0)
(1153 919.152 0)
(519.188 2708.53 0)
(-92.193 2452.87 0)
(-1689.9 1518.05 0)
(1453.02 671.656 0)
(-16.6673 159.667 0)
(1109.38 2477.71 0)
(165.191 2547.92 0)
(-92.6089 496.193 0)
(1070.12 2037.53 0)
(43.9006 2479.65 0)
(677.04 1746.41 0)
(177.987 742.813 0)
(-110.929 2339.8 0)
(338.015 2639.39 0)
(338.206 2636.25 0)
(284.639 2460.42 0)
(-137.753 2585.73 0)
(1200.36 1716.26 0)
(161.542 1466.06 0)
(-997.229 301.026 0)
(546.574 2373.96 0)
(54.3744 200.384 0)
(465.517 2598.86 0)
(704.631 2244.91 0)
(-1098.79 2341.87 0)
(712.696 2622.76 0)
(2.62711 29.998 0)
(14.7448 2567.82 0)
(1034.72 2392.8 0)
(15.2154 2567.35 0)
(-6.00731 79.1755 0)
(-125.093 689.576 0)
(-1730.88 532.339 0)
(-1705.01 543.757 0)
(45.8025 194.34 0)
(0.207433 0.43233 0)
(-851.993 2584.39 0)
(2088.16 1704.35 0)
(72.4938 2455.3 0)
(973.081 220.319 0)
(-1277.41 2259.12 0)
(6.02151 959.463 0)
(1558.54 392.473 0)
(1338.26 2319.91 0)
(54.4672 413.543 0)
(-91.6824 2322.6 0)
(-1802.3 1065.79 0)
(-18.0102 161.994 0)
(-35.7494 120.874 0)
(1220.19 2193.53 0)
(-416.294 1746.9 0)
(-931.216 1943.45 0)
(-1088.02 2432.43 0)
(11.2448 2643.92 0)
(-102.659 2318.88 0)
(-1294.81 2295.19 0)
(859.423 2606.43 0)
(-423.222 1518 0)
(-178.846 660.605 0)
(204.805 2415.2 0)
(-70.301 483.726 0)
(-1492.34 2177.11 0)
(2005.67 597.134 0)
(119.828 959.039 0)
(1067.68 2452.29 0)
(-2051.31 992.787 0)
(-1582.6 1893.64 0)
(138.091 804.984 0)
(-172.888 642.8 0)
(-253.253 2552.24 0)
(91.0634 1909.63 0)
(-391.444 2232.96 0)
(-1882.56 513.297 0)
(-1735.64 1610.53 0)
(-1024.66 287.055 0)
(-2068.78 674.136 0)
(2147.99 914.557 0)
(-46.6776 2570.5 0)
(-123.12 679.036 0)
(-504.071 2371.57 0)
(-369.637 2629.98 0)
(-734.339 2452.68 0)
(79.3657 732.159 0)
(-70.8785 651.429 0)
(1085.54 2504.69 0)
(1081.11 2350.68 0)
(-78.387 612.072 0)
(1030.94 1414.64 0)
(-1213.68 2460.32 0)
(-125.264 468.617 0)
(441.1 2540.87 0)
(-171.135 852.632 0)
(498.523 2472.96 0)
(-231.993 1918.77 0)
(78.1574 2444.59 0)
(521.253 2618.12 0)
(-830.975 2613.41 0)
(1063.42 2557.72 0)
(0.386855 0.620838 0)
(52.5097 2260.71 0)
(-37.0334 386.282 0)
(-407.362 2691.16 0)
(-412.052 2228.56 0)
(-36.9288 379.869 0)
(-317.493 2650.58 0)
(866.795 2594.38 0)
(551.34 2357.49 0)
(-2048.22 580.984 0)
(-113.284 415.455 0)
(-1244.42 314.442 0)
(47.5926 408.354 0)
(1380.34 2321.11 0)
(-350.96 2642.87 0)
(167.638 2551.03 0)
(669.573 2605.65 0)
(-660.528 2285.79 0)
(857.939 2593.12 0)
(-111.464 2672.51 0)
(62.0893 1450.58 0)
(608.04 2497.77 0)
(-1679.13 1359.1 0)
(-272.036 2859.36 0)
(-1976.68 562.696 0)
(429.769 2514.79 0)
(-36.6224 1119.16 0)
(46.9399 449.895 0)
(-1438.54 2262.27 0)
(18.163 280.697 0)
(268.843 1392.45 0)
(-13.2268 91.312 0)
(-1576.09 1903.47 0)
(1244.8 1082.86 0)
(-121.108 2785.37 0)
(-70.3568 809.026 0)
(469.572 2473.3 0)
(-394.547 374.897 0)
(519.993 2708.31 0)
(-1186.89 2481.69 0)
(-606.332 2625.26 0)
(-1903.26 1273.6 0)
(130.583 2583.8 0)
(-589.238 2630.79 0)
(1934.1 1458.38 0)
(442.087 1932.68 0)
(42.2532 154.382 0)
(-509.883 1160.65 0)
(-2026.3 1823.17 0)
(-126.946 2565.62 0)
(134.326 997.54 0)
(160.183 2277.81 0)
(-823.881 230.851 0)
(-0.821154 11.2641 0)
(-1256.78 807.721 0)
(1570.84 2019.83 0)
(-788.751 2599.39 0)
(1909.47 529.811 0)
(66.5699 2354.78 0)
(379.223 2637.57 0)
(780.562 2285.13 0)
(778.511 2524.71 0)
(645.815 2255.06 0)
(-22.4876 373.376 0)
(-398.764 2200.39 0)
(175.315 840.607 0)
(94.9319 1920.89 0)
(1702.58 1628.94 0)
(-197.497 2554.67 0)
(200.611 2710.21 0)
(786.013 135.262 0)
(-1237.16 2319.95 0)
(-200.204 2544.53 0)
(74.0485 254.551 0)
(-1523.75 810.3 0)
(-493.792 257.439 0)
(-502.978 520.835 0)
(-117.08 2569.2 0)
(-62.5181 323.586 0)
(323.402 1661.59 0)
(39.6764 377.43 0)
(366.035 2494.98 0)
(121.776 2580.84 0)
(-344.792 698.779 0)
(45.8595 1085.2 0)
(-1522.45 2204.38 0)
(-14.3795 489.428 0)
(961.337 1124.84 0)
(-100.799 2629.9 0)
(581.799 2550.12 0)
(24.1848 2666.63 0)
(446.864 262.732 0)
(-450.942 2360.91 0)
(1357.09 2304.93 0)
(992.593 1407.05 0)
(-2126.44 675.902 0)
(429.613 2512.66 0)
(-1343.25 367.459 0)
(-411.03 2279.72 0)
(68.9591 744.352 0)
(22.2716 2821.29 0)
(-1039.74 2450.74 0)
(-52.0083 2544.27 0)
(-816.859 2628.85 0)
(604.269 2633.88 0)
(1443.16 809.316 0)
(240.344 2661.84 0)
(-784.878 2533.91 0)
(261.714 2516.92 0)
(0.165855 0.311324 0)
(-2134.95 893.521 0)
(-356.531 2185.11 0)
(-1806.98 1670.63 0)
(76.4691 741.237 0)
(42.6739 448.402 0)
(-63.3602 339.154 0)
(353.654 2508.18 0)
(2190.53 677.44 0)
(140.073 2425.65 0)
(-21.2939 594.682 0)
(590.402 2715.06 0)
(-259.874 2687.18 0)
(-651.444 2597 0)
(1747.75 1850.33 0)
(-1496.95 1952.78 0)
(-1109.4 2415.29 0)
(1498.46 1982.71 0)
(1250.62 2466.37 0)
(1012.05 1923.48 0)
(-1253.39 2339.53 0)
(87.3992 347.127 0)
(-1228.53 1390.18 0)
(1265.19 2130.89 0)
(427.716 2664.5 0)
(-1099.07 2488 0)
(-211.909 2273.25 0)
(1414.1 2278.53 0)
(-43.5885 164.249 0)
(346.314 2490.46 0)
(1258.88 1586.84 0)
(-1137.75 2517.25 0)
(-43.1905 258.517 0)
(49.7629 236.501 0)
(-974.694 2513.29 0)
(1677.41 2111.39 0)
(-25.5736 2611.73 0)
(1775.6 1635.6 0)
(1140.69 2393.83 0)
(-1994.65 1415.73 0)
(-1669 1717.21 0)
(-11.2492 484.815 0)
(2174.12 763.739 0)
(-42.1186 206.14 0)
(1404.51 358.222 0)
(-1262.85 2320.94 0)
(-490.508 2628.77 0)
(1869.68 1565.54 0)
(1332.97 2239.97 0)
(8.05498 9.80191 0)
(-73.1805 266.921 0)
(-589.055 1219.39 0)
(-1601.69 1328.33 0)
(-1786.1 1467.45 0)
(-1114.96 414.475 0)
(164.188 707.134 0)
(-31.7691 2649.18 0)
(242.813 2763.12 0)
(1735.49 1974.8 0)
(1510.98 1367.21 0)
(2.2596 5.70434 0)
(-427.154 2550.42 0)
(-28.0279 145.951 0)
(875.882 2555.52 0)
(1018.76 2352.01 0)
(1245.7 2385.51 0)
(31.4189 2459.83 0)
(1089.1 2452.51 0)
(922.134 2207.58 0)
(1883.73 481.606 0)
(63.0006 738.515 0)
(-69.1554 265.441 0)
(-758.705 189.214 0)
(-1448.51 2079.84 0)
(-79.7701 2492.04 0)
(143.62 2345.71 0)
(-46.8701 2680.14 0)
(-773.772 1834.33 0)
(2173.92 874.484 0)
(-1471.21 1279.92 0)
(1771.27 1913.46 0)
(879.946 1975.56 0)
(-19.8937 345.107 0)
(578.764 2022.07 0)
(176.228 2718.3 0)
(-1198.36 2370.42 0)
(-452.73 1814.29 0)
(-1881.29 1029.66 0)
(1658.18 1220.14 0)
(771.93 2602.25 0)
(1026.87 2237.57 0)
(-231.139 2079.91 0)
(622.818 2526 0)
(849.758 1665.93 0)
(900.986 2457.51 0)
(1347.19 2149.68 0)
(90.8393 1183.38 0)
(-158.576 583.646 0)
(-192.997 881.287 0)
(164.883 626.419 0)
(1408.09 2180.82 0)
(35.9387 375.59 0)
(24.2277 1050.03 0)
(1129.41 1304.73 0)
(-14.6382 2468.66 0)
(970.495 2560.71 0)
(-1567.73 704.852 0)
(1758.41 1977.67 0)
(-93.1623 329.255 0)
(858.781 2538.95 0)
(1021.32 2417.14 0)
(-685.056 2676.76 0)
(1841.19 1573.65 0)
(439.672 2631.24 0)
(49.426 413.651 0)
(-792.972 2456.38 0)
(1322.39 1724.61 0)
(-40.9176 208.699 0)
(324.982 2123.56 0)
(101.47 1469.85 0)
(833.5 1708.98 0)
(1672.26 1932.54 0)
(-291.606 1999.81 0)
(-1089.11 2235.94 0)
(-512.68 2598.05 0)
(-225.486 2676.2 0)
(-809.271 2494.5 0)
(1698.62 487.315 0)
(-584.482 2648.57 0)
(764.862 240.469 0)
(-1104.55 518.954 0)
(-571.078 2623.94 0)
(-75.0813 636.333 0)
(-1267.98 2425.61 0)
(-85.0494 2298 0)
(173.175 2608.91 0)