0 	0 	0 	0 	0 	0
-3.34597e-021 	8.49561e-005 	1.99971e-019 	0.0101323 	1.56611 	0
1.85288e-021 	0.000165142 	1.99971e-019 	-0.0375742 	3.75511 	0
1.79995e-021 	0.000165952 	1.99971e-019 	-0.035376 	3.76956 	0
1.58819e-021 	0.000167208 	1.99971e-019 	-0.0328309 	3.78056 	0
3.38813e-021 	0.000246429 	1.99971e-019 	-0.0943647 	3.86445 	0
-3.38813e-021 	0.000286935 	1.99971e-019 	-0.258845 	3.92912 	0
-4.95617e-021 	0.000324576 	1.99971e-019 	-0.281094 	3.71713 	0
-8.09903e-021 	0.000386443 	1.99971e-019 	-0.304738 	3.94456 	0
-8.94607e-021 	0.00039981 	1.99971e-019 	-0.294563 	3.93915 	0
-7.6233e-021 	0.000409413 	1.99971e-019 	-0.313002 	3.99133 	0
-3.38813e-021 	0.000474922 	1.99971e-019 	-0.296991 	4.17676 	0
-1.29248e-020 	0.000525915 	1.99971e-019 	-0.337963 	4.52312 	0
-1.35525e-020 	0.000545077 	1.99971e-019 	-0.354818 	4.61413 	0
-1.39213e-020 	0.000577816 	1.99971e-019 	-0.389572 	4.87436 	0
-1.52466e-020 	0.000613877 	1.99971e-019 	-0.420021 	5.08142 	0
-1.69407e-020 	0.000636855 	1.99971e-019 	-0.485843 	5.28365 	0
-2.03288e-020 	0.000680922 	1.99971e-019 	-0.568737 	5.61596 	0
-2.11758e-020 	0.000744184 	1.99971e-019 	-0.687431 	6.26783 	0
-2.15993e-020 	0.000747971 	1.99971e-019 	-0.696965 	6.30434 	0
-2.07523e-020 	0.000754798 	1.99971e-019 	-0.715783 	6.38452 	0
-2.37169e-020 	0.000812401 	1.99971e-019 	-0.861377 	6.99593 	0
-2.44515e-020 	0.000841573 	1.99971e-019 	-0.945549 	7.37701 	0
-2.82213e-020 	0.000874088 	1.99971e-019 	-1.06069 	7.78735 	0
-2.89624e-020 	0.0009338 	1.99971e-019 	-1.27322 	8.66014 	0
-2.89326e-020 	0.000934775 	1.99971e-019 	-1.27753 	8.6749 	0
-2.8905e-020 	0.000936905 	1.99971e-019 	-1.2865 	8.71043 	0
-2.82237e-020 	0.000994329 	1.99971e-019 	-1.48854 	9.64146 	0
-2.99177e-020 	0.00102109 	1.99971e-019 	-1.55463 	10.1447 	0
-3.28103e-020 	0.00105169 	1.99971e-019 	-1.69379 	10.7407 	0
-3.59866e-020 	0.00110517 	1.99971e-019 	-1.8593 	11.9554 	0
-3.58085e-020 	0.00110764 	1.99971e-019 	-1.87394 	12.015 	0
-3.62107e-020 	0.00111255 	1.99971e-019 	-1.89381 	12.1547 	0
-3.53024e-020 	0.00116181 	1.99971e-019 	-2.03867 	13.568 	0
-3.53024e-020 	0.00118635 	1.99971e-019 	-2.05702 	14.403 	0
-4.04544e-020 	0.00121509 	1.99971e-019 	-2.1712 	15.4318 	0
-4.55366e-020 	0.00126354 	1.99971e-019 	-2.25716 	17.4483 	0
-4.5688e-020 	0.00126595 	1.99971e-019 	-2.27027 	17.5564 	0
-4.61633e-020 	0.00127065 	1.99971e-019 	-2.28637 	17.7867 	0
-4.40484e-020 	0.00131575 	1.99971e-019 	-2.36869 	20.0561 	0
-4.57425e-020 	0.00133853 	1.99971e-019 	-2.35112 	21.3497 	0
-4.60365e-020 	0.00136471 	1.99971e-019 	-2.4409 	22.869 	0
-4.85776e-020 	0.00141004 	1.99971e-019 	-2.41245 	25.9056 	0
-4.87829e-020 	0.00141176 	1.99971e-019 	-2.42118 	26.0323 	0
-4.87044e-020 	0.00141533 	1.99971e-019 	-2.42529 	26.2995 	0
-4.78399e-020 	0.00145799 	1.99971e-019 	-2.45826 	29.6012 	0
-4.78399e-020 	0.00147866 	1.99971e-019 	-2.41721 	31.3046 	0
-4.81103e-020 	0.00150232 	1.99971e-019 	-2.48228 	33.3158 	0
-5.10749e-020 	0.00154483 	1.99971e-019 	-2.42821 	37.1552 	0
-5.12294e-020 	0.00154543 	1.99971e-019 	-2.42967 	37.2116 	0
-5.12455e-020 	0.00154657 	1.99971e-019 	-2.42911 	37.3244 	0
-5.27756e-020 	0.00158764 	1.99971e-019 	-2.3408 	41.4549 	0
-5.36226e-020 	0.00160878 	1.99971e-019 	-2.2418 	43.6714 	0
-5.51794e-020 	0.00162912 	1.99971e-019 	-2.23867 	45.8513 	0
-5.80218e-020 	0.00166732 	1.99971e-019 	-2.09903 	50.1045 	0
-5.80218e-020 	0.00166886 	1.99971e-019 	-2.09176 	50.2785 	0
-5.79159e-020 	0.00166968 	1.99971e-019 	-2.08597 	50.3743 	0
-5.61955e-020 	0.00170776 	1.99971e-019 	-1.96465 	54.935 	0
-5.36544e-020 	0.00172866 	1.99971e-019 	-1.84244 	57.5115 	0
-5.20092e-020 	0.00174596 	1.99971e-019 	-1.82463 	59.6821 	0
-5.20925e-020 	0.0017779 	1.99971e-019 	-1.6532 	63.8314 	0
-5.2516e-020 	0.00178256 	1.99971e-019 	-1.62394 	64.4444 	0
-5.2516e-020 	0.00178505 	1.99971e-019 	-1.6039 	64.7829 	0
-5.26435e-020 	0.00181855 	1.99971e-019 	-1.46609 	69.4216 	0
-5.43376e-020 	0.00184057 	1.99971e-019 	-1.31628 	72.5552 	0
-5.24645e-020 	0.00185358 	1.99971e-019 	-1.26978 	74.4344 	0
-5.33631e-020 	0.0018797 	1.99971e-019 	-1.15817 	78.2932 	0
-5.44743e-020 	0.00188773 	1.99971e-019 	-1.1098 	79.4932 	0
-5.53214e-020 	0.00189168 	1.99971e-019 	-1.07678 	80.1048 	0
-5.4663e-020 	0.00192066 	1.99971e-019 	-0.9327 	84.6855 	0
-5.551e-020 	0.00194082 	1.99971e-019 	-0.816642 	87.9532 	0
-5.56148e-020 	0.00195274 	1.99971e-019 	-0.796769 	89.9089 	0
-5.2516e-020 	0.00197421 	1.99971e-019 	-0.71892 	93.5043 	0
-5.25717e-020 	0.00198403 	1.99971e-019 	-0.667562 	95.1648 	0
-5.17246e-020 	0.00198941 	1.99971e-019 	-0.625458 	96.0982 	0
-5.1242e-020 	0.00201476 	1.99971e-019 	-0.56332 	100.565 	0
-5.2089e-020 	0.00203493 	1.99971e-019 	-0.436214 	104.227 	0
-5.16805e-020 	0.00204453 	1.99971e-019 	-0.413146 	106.004 	0
-5.20925e-020 	0.00206227 	1.99971e-019 	-0.322476 	109.378 	0
-5.1669e-020 	0.00207317 	1.99971e-019 	-0.250423 	111.467 	0
-5.1669e-020 	0.00207923 	1.99971e-019 	-0.194648 	112.669 	0
-5.27189e-020 	0.00210118 	1.99971e-019 	-0.111416 	117.054 	0
-5.14483e-020 	0.00212297 	1.99971e-019 	-1.12481 	119.205 	0
-5.17263e-020 	0.00212849 	1.99971e-019 	0.0194025 	122.675 	0
-5.1669e-020 	0.00213857 	1.99971e-019 	0.106291 	124.536 	0
-5.11911e-020 	0.00215502 	1.99971e-019 	0.565921 	128.237 	0
-5.0344e-020 	0.00216369 	1.99971e-019 	1.10074 	131.977 	0
-5.16856e-020 	0.00218091 	1.99971e-019 	0.675503 	134.028 	0
-5.0415e-020 	0.00220231 	1.99971e-019 	-1.07207 	136.436 	0
-5.01013e-020 	0.00220628 	1.99971e-019 	-1.98864 	140.595 	0
-4.99749e-020 	0.0022138 	1.99971e-019 	0.29023 	142.02 	0
-5.02753e-020 	0.00223081 	1.99971e-019 	0.736959 	145.926 	0
-4.94282e-020 	0.00224032 	1.99971e-019 	0.267941 	148.031 	0
-5.17846e-020 	0.00225455 	1.99971e-019 	-0.737574 	152.294 	0
-5.24199e-020 	0.00227622 	1.99971e-019 	-0.248273 	156.285 	0
-5.20641e-020 	0.00227809 	1.99971e-019 	-0.753897 	158.469 	0
-5.18808e-020 	0.00228155 	1.99971e-019 	-0.325957 	162.53 	0
-5.2516e-020 	0.00230055 	1.99971e-019 	0.668829 	164.413 	0
-5.2516e-020 	0.00231126 	1.99971e-019 	1.13839 	168.547 	0
-5.252e-020 	0.00232249 	1.99971e-019 	-1.03206 	171.151 	0
-5.21984e-020 	0.00234187 	1.99971e-019 	1.57016 	172.732 	0
-5.19136e-020 	0.00234404 	1.99971e-019 	2.06069 	176.941 	0
-5.21254e-020 	0.00234526 	1.99971e-019 	2.63973 	181.192 	0
-5.2235e-020 	0.00236485 	1.99971e-019 	2.01322 	183.527 	0
-5.35056e-020 	0.00237739 	1.99971e-019 	-0.261856 	186.256 	0
-5.40496e-020 	0.00238521 	1.99971e-019 	-1.58745 	191.02 	0
-5.46336e-020 	0.00240097 	1.99971e-019 	1.47983 	192.582 	0
-5.43193e-020 	0.00240496 	1.99971e-019 	2.03467 	196.997 	0
-5.43193e-020 	0.00240707 	1.99971e-019 	2.71086 	201.548 	0
-5.2116e-020 	0.0024257 	1.99971e-019 	2.17209 	204.061 	0
-5.33866e-020 	0.00243488 	1.99971e-019 	1.06206 	209.097 	0
-5.31997e-020 	0.00244358 	1.99971e-019 	-1.30492 	211.996 	0
-5.20925e-020 	0.00245791 	1.99971e-019 	0.927839 	216.242 	0
-5.17955e-020 	0.00246134 	1.99971e-019 	2.10869 	218.338 	0
-5.15837e-020 	0.0024634 	1.99971e-019 	2.68495 	223.074 	0
-5.17495e-020 	0.00247897 	1.99971e-019 	1.98263 	225.638 	0
-5.17495e-020 	0.00249024 	1.99971e-019 	-0.592525 	228.669 	0
-5.21023e-020 	0.00249621 	1.99971e-019 	-2.10651 	233.908 	0
-5.10337e-020 	0.00250679 	1.99971e-019 	1.19901 	235.792 	0
-5.11683e-020 	0.00251298 	1.99971e-019 	1.81381 	240.761 	0
-5.07448e-020 	0.00251644 	1.99971e-019 	2.52431 	245.82 	0
-5.15314e-020 	0.00252957 	1.99971e-019 	1.75759 	248.626 	0
-5.11079e-020 	0.00254166 	1.99971e-019 	-1.12254 	251.928 	0
-5.22259e-020 	0.00254543 	1.99971e-019 	-2.54725 	257.626 	0
-5.1669e-020 	0.00255292 	1.99971e-019 	0.906928 	259.391 	0
-5.14908e-020 	0.00256094 	1.99971e-019 	1.51608 	264.612 	0
-5.10673e-020 	0.00256523 	1.99971e-019 	0.782305 	267.481 	0
-5.09501e-020 	0.00257596 	1.99971e-019 	-0.661648 	273.157 	0
-5.0822e-020 	0.00258717 	1.99971e-019 	0.0285757 	278.609 	0
-5.07306e-020 	0.00259056 	1.99971e-019 	-0.755174 	281.475 	0
-5.01867e-020 	0.00259682 	1.99971e-019 	-0.188041 	287.11 	0
-5.05917e-020 	0.00260497 	1.99971e-019 	1.29921 	289.636 	0
-5.10152e-020 	0.00260958 	1.99971e-019 	1.96928 	295.3 	0
-5.16374e-020 	0.00261874 	1.99971e-019 	1.06781 	298.342 	0
-5.14257e-020 	0.00263091 	1.99971e-019 	-2.21168 	301.897 	0
-5.16184e-020 	0.00263224 	1.99971e-019 	-4.20202 	308.066 	0
-5.15631e-020 	0.00263447 	1.99971e-019 	-0.1797 	310.396 	0
-5.15941e-020 	0.00264536 	1.99971e-019 	0.442193 	316.242 	0
-5.11706e-020 	0.00265172 	1.99971e-019 	-0.46078 	319.469 	0
-5.18329e-020 	0.00265813 	1.99971e-019 	-2.41895 	325.874 	0
-5.16161e-020 	0.00266994 	1.99971e-019 	1.86712 	328.241 	0
-5.16161e-020 	0.00267076 	1.99971e-019 	2.64127 	334.254 	0
-5.16161e-020 	0.00267123 	1.99971e-019 	3.41393 	340.463 	0
-5.1669e-020 	0.00268287 	1.99971e-019 	-0.29421 	344.327 	0
-5.20925e-020 	0.00269036 	1.99971e-019 	0.444604 	350.691 	0
-5.22175e-020 	0.00269466 	1.99971e-019 	-3.33113 	354.627 	0
-5.2516e-020 	0.0027024 	1.99971e-019 	1.19612 	357.12 	0
-5.26373e-020 	0.00270627 	1.99971e-019 	1.98546 	363.539 	0
-5.26373e-020 	0.00270844 	1.99971e-019 	2.83888 	370.117 	0
-5.13663e-020 	0.00271745 	1.99971e-019 	1.8555 	373.668 	0
-5.1578e-020 	0.00272578 	1.99971e-019 	-1.9381 	377.857 	0
-5.15532e-020 	0.00272834 	1.99971e-019 	-4.11451 	385.031 	0
-5.14573e-020 	0.00273244 	1.99971e-019 	-0.64976 	391.353 	0
-5.12455e-020 	0.00273891 	1.99971e-019 	1.18138 	394.439 	0
-5.18808e-020 	0.00274291 	1.99971e-019 	1.91466 	401.391 	0
-5.23416e-020 	0.00274927 	1.99971e-019 	-2.3083 	405.708 	0
-5.24739e-020 	0.00275926 	1.99971e-019 	-3.44351 	409.571 	0
-5.29206e-020 	0.00276931 	1.99971e-019 	-0.0939911 	427.369 	0
-5.29396e-020 	0.00277494 	1.99971e-019 	-1.20538 	431.362 	0
-5.2516e-020 	0.00277899 	1.99971e-019 	-0.184619 	438.7 	0
-5.26219e-020 	0.00278759 	1.99971e-019 	2.16028 	441.974 	0
-5.25672e-020 	0.00278837 	1.99971e-019 	3.42624 	449.283 	0
-5.25143e-020 	0.00278873 	1.99971e-019 	4.55218 	456.866 	0
-5.2268e-020 	0.00279736 	1.99971e-019 	3.55803 	461 	0
-5.24797e-020 	0.00280212 	1.99971e-019 	-0.733446 	466.003 	0
-5.32308e-020 	0.00280615 	1.99971e-019 	-3.17397 	474.36 	0
-5.35748e-020 	0.00281288 	1.99971e-019 	2.13881 	477.425 	0
-5.3305e-020 	0.00281481 	1.99971e-019 	3.12171 	485.361 	0
-5.35168e-020 	0.00281594 	1.99971e-019 	1.88297 	489.869 	0
-5.29183e-020 	0.00282325 	1.99971e-019 	-0.601972 	498.745 	0
-5.27065e-020 	0.00282909 	1.99971e-019 	0.283597 	507.141 	0
-5.27788e-020 	0.00283153 	1.99971e-019 	-0.948139 	511.623 	0
-5.28337e-020 	0.00283574 	1.99971e-019 	-0.129574 	520.206 	0
-5.27278e-020 	0.00283947 	1.99971e-019 	2.02571 	524.098 	0
-5.29396e-020 	0.00284177 	1.99971e-019 	2.91017 	532.889 	0
-5.32078e-020 	0.0028473 	1.99971e-019 	-2.05556 	538.357 	0
-5.35784e-020 	0.00285426 	1.99971e-019 	-3.37251 	543.264 	0
-5.36265e-020 	0.00285497 	1.99971e-019 	-2.63755 	552.496 	0
-5.36807e-020 	0.00285619 	1.99971e-019 	-0.0964118 	556.711 	0
-5.32793e-020 	0.00286248 	1.99971e-019 	1.08727 	565.885 	0
-5.31513e-020 	0.0028657 	1.99971e-019 	2.27796 	575.014 	0
-5.2996e-020 	0.00286952 	1.99971e-019 	-1.65541 	579.885 	0
-5.30454e-020 	0.00287533 	1.99971e-019 	0.991747 	589.463 	0
-5.32226e-020 	0.00287656 	1.99971e-019 	3.31758 	593.857 	0
-5.31167e-020 	0.0028774 	1.99971e-019 	4.82346 	603.922 	0
-5.26813e-020 	0.00288383 	1.99971e-019 	3.93891 	609.578 	0
-5.28931e-020 	0.00288722 	1.99971e-019 	-1.14546 	616.158 	0
-5.33804e-020 	0.00289058 	1.99971e-019 	-4.00146 	626.832 	0
-5.3416e-020 	0.00289598 	1.99971e-019 	2.11455 	630.968 	0
-5.33593e-020 	0.00289724 	1.99971e-019 	3.03415 	641.453 	0
-5.33593e-020 	0.00289802 	1.99971e-019 	1.6115 	647.369 	0
-5.31311e-020 	0.00290378 	1.99971e-019 	2.5627 	658.22 	0
-5.37664e-020 	0.00290827 	1.99971e-019 	-0.320099 	670.393 	0
-5.35302e-020 	0.00291019 	1.99971e-019 	-1.77048 	676.4 	0
-5.37866e-020 	0.00291346 	1.99971e-019 	-0.878832 	688.008 	0
-5.35748e-020 	0.00291639 	1.99971e-019 	1.58182 	693.163 	0
-5.39984e-020 	0.00291816 	1.99971e-019 	2.43176 	705.079 	0
-5.39984e-020 	0.00292249 	1.99971e-019 	-3.29539 	712.307 	0
-5.36807e-020 	0.0029281 	1.99971e-019 	-2.39349 	724.871 	0
-5.37337e-020 	0.00292857 	1.99971e-019 	-8.21632 	732.166 	0
-5.37982e-020 	0.00292934 	1.99971e-019 	-3.09729 	744.515 	0
-5.37866e-020 	0.00293455 	1.99971e-019 	3.36222 	749.384 	0
-5.35748e-020 	0.00293792 	1.99971e-019 	0.148281 	763.75 	0
-5.31513e-020 	0.00294038 	1.99971e-019 	-5.52412 	771.804 	0
-5.31513e-020 	0.00294413 	1.99971e-019 	0.94151 	777.307 	0
-5.29396e-020 	0.00294614 	1.99971e-019 	5.8462 	789.368 	0
-5.30454e-020 	0.00294737 	1.99971e-019 	2.6648 	804.661 	0
-5.29396e-020 	0.00295171 	1.99971e-019 	-3.1498 	813.652 	0
-5.31513e-020 	0.00295648 	1.99971e-019 	-4.81838 	821.565 	0
-5.32572e-020 	0.00295719 	1.99971e-019 	-3.98525 	835.999 	0
-5.32091e-020 	0.00295827 	1.99971e-019 	-3.15237 	850.994 	0
-5.3368e-020 	0.00296264 	1.99971e-019 	-0.66261 	857.691 	0
-5.3368e-020 	0.0029654 	1.99971e-019 	0.137689 	873.296 	0
-5.37014e-020 	0.002968 	1.99971e-019 	-5.35912 	883.028 	0
-5.39984e-020 	0.00297217 	1.99971e-019 	-0.567455 	898.249 	0
-5.39734e-020 	0.00297356 	1.99971e-019 	1.671 	905.978 	0
-5.40793e-020 	0.00297455 	1.99971e-019 	-0.0452526 	915.634 	0
-5.41659e-020 	0.00297924 	1.99971e-019 	0.557725 	933.439 	0
-5.39012e-020 	0.0029846 	1.99971e-019 	-4.76572 	944.438 	0
-5.39454e-020 	0.00298513 	1.99971e-019 	-4.38622 	963.246 	0
-5.39454e-020 	0.00298558 	1.99971e-019 	-2.66409 	972.963 	0
-5.42101e-020 	0.00299107 	1.99971e-019 	0.219467 	992.503 	0
-5.45562e-020 	0.00299636 	1.99971e-019 	0.248462 	1013.05 	0
-5.45297e-020 	0.00299676 	1.99971e-019 	1.60362 	1022.78 	0
-5.42483e-020 	0.00300259 	1.99971e-019 	-1.62439 	1056.49 	0
-5.40365e-020 	0.003007 	1.99971e-019 	-1.55576 	1080.93 	0
-5.42552e-020 	0.00300912 	1.99971e-019 	-1.75748 	1093.03 	0
-5.36592e-020 	0.00301185 	1.99971e-019 	-0.666401 	1122.44 	0
-5.34475e-020 	0.00301655 	1.99971e-019 	-0.681699 	1135.37 	0
-5.32357e-020 	0.00302036 	1.99971e-019 	-1.45869 	1163.58 	0
-5.30001e-020 	0.00302411 	1.99971e-019 	-0.474209 	1180.83 	0
-5.29762e-020 	0.00302764 	1.99971e-019 	-0.975447 	1204.36 	0
-5.25527e-020 	0.0030309 	1.99971e-019 	-2.91437 	1218.48 	0
-5.2288e-020 	0.00303714 	1.99971e-019 	-1.87961 	1250.3 	0
-5.23151e-020 	0.00303837 	1.99971e-019 	0.608036 	1256.67 	0
-5.23572e-020 	0.00303881 	1.99971e-019 	3.41862 	1273.21 	0
-5.24631e-020 	0.00304009 	1.99971e-019 	0.0988245 	1286.13 	0
-5.2516e-020 	0.00304859 	1.99971e-019 	-10.1359 	1320.69 	0
-5.30082e-020 	0.00305358 	1.99971e-019 	-4.57466 	1357.46 	0
-5.2911e-020 	0.00305788 	1.99971e-019 	12.0935 	1379.06 	0
-5.29396e-020 	0.00306216 	1.99971e-019 	3.19645 	1410.97 	0
-5.29396e-020 	0.00306755 	1.99971e-019 	-20.0533 	1426.02 	0
-5.27849e-020 	0.00307195 	1.99971e-019 	-0.640705 	1447.25 	0
-5.37866e-020 	0.0030783 	1.99971e-019 	-1.27305 	1484.36 	0
-5.30454e-020 	0.00308755 	1.99971e-019 	-13.0599 	1501.6 	0
-5.30454e-020 	0.00308954 	1.99971e-019 	-45.8024 	1539.81 	0
-5.30454e-020 	0.00309082 	1.99971e-019 	-12.3517 	1557.66 	0
-5.29396e-020 	0.0031015 	1.99971e-019 	9.44028 	1595.65 	0
-5.29396e-020 	0.0031101 	1.99971e-019 	1.60017 	1629.66 	0
-5.33631e-020 	0.00311354 	1.99971e-019 	14.9299 	1648.29 	0
-5.38577e-020 	0.00311859 	1.99971e-019 	12.2279 	1682.21 	0
-5.54807e-020 	0.00312652 	1.99971e-019 	-41.2958 	1694.59 	0
-5.51282e-020 	0.00313245 	1.99971e-019 	5.31127 	1714.76 	0
-5.49951e-020 	0.00314016 	1.99971e-019 	2.86038 	1746.55 	0
-5.5621e-020 	0.00315155 	1.99971e-019 	-20.1708 	1760.8 	0
-5.59042e-020 	0.00315462 	1.99971e-019 	-28.5759 	1791.66 	0
-5.59042e-020 	0.00315668 	1.99971e-019 	-13.7749 	1808.66 	0
-5.50571e-020 	0.00316955 	1.99971e-019 	-21.6384 	1837.71 	0
-5.64336e-020 	0.00318075 	1.99971e-019 	42.4847 	1855.91 	0
-5.64336e-020 	0.00318165 	1.99971e-019 	76.5954 	1891.64 	0
-5.68357e-020 	0.00319845 	1.99971e-019 	78.3085 	1905.17 	0
-5.84453e-020 	0.00321793 	1.99971e-019 	-5.29944 	1951.69 	0
-5.75982e-020 	0.00322905 	1.99971e-019 	7.96436 	1979.12 	0
-5.67512e-020 	0.00323704 	1.99971e-019 	-67.64 	2002.73 	0
-5.72464e-020 	0.00324926 	1.99971e-019 	-0.936897 	2022.92 	0
-5.67077e-020 	0.00325701 	1.99971e-019 	31.3063 	2033.28 	0
-5.65382e-020 	0.00326282 	1.99971e-019 	8.16774 	2047.04 	0
-5.75982e-020 	0.00327708 	1.99971e-019 	-33.6963 	2072.28 	0
-5.7413e-020 	0.00329315 	1.99971e-019 	27.2034 	2088.96 	0
-5.736e-020 	0.00329351 	1.99971e-019 	99.0246 	2096.67 	0
-5.736e-020 	0.00329535 	1.99971e-019 	16.4752 	2119.12 	0
-5.80218e-020 	0.00331581 	1.99971e-019 	-30.543 	2123.9 	0
-5.75982e-020 	0.00331817 	1.99971e-019 	6.81481 	2128.6 	0
-5.71747e-020 	0.00332285 	1.99971e-019 	-27.7564 	2147.01 	0
-5.84453e-020 	0.00334525 	1.99971e-019 	10.1808 	2154.3 	0
-5.92923e-020 	0.0033595 	1.99971e-019 	-15.895 	2164.8 	0
-5.75982e-020 	0.00337086 	1.99971e-019 	-59.8346 	2183.72 	0
-5.84413e-020 	0.00338887 	1.99971e-019 	12.8677 	2200.39 	0
-5.89322e-020 	0.00339724 	1.99971e-019 	46.7582 	2208.6 	0
-5.97648e-020 	0.00340253 	1.99971e-019 	11.4759 	2214.57 	0
-6.10354e-020 	0.0034245 	1.99971e-019 	13.3525 	2238.26 	0
-6.01393e-020 	0.00344625 	1.99971e-019 	13.4432 	2255.41 	0
-6.09864e-020 	0.0034527 	1.99971e-019 	13.1659 	2259.38 	0
-6.00398e-020 	0.00346313 	1.99971e-019 	14.2063 	2268.63 	0
-6.00044e-020 	0.00348099 	1.99971e-019 	12.4021 	2283.34 	0
-6.02499e-020 	0.00348961 	1.99971e-019 	12.0244 	2290.48 	0
-5.94029e-020 	0.00351079 	1.99971e-019 	13.6063 	2307.3 	0
-5.97e-020 	0.00352632 	1.99971e-019 	20.736 	2316.53 	0
-5.84453e-020 	0.00354165 	1.99971e-019 	44.6873 	2323.83 	0
-5.92923e-020 	0.00355262 	1.99971e-019 	19.8126 	2334.29 	0
-5.60582e-020 	0.00357199 	1.99971e-019 	15.0425 	2347.65 	0
-5.41354e-020 	0.00358969 	1.99971e-019 	11.8484 	2357.51 	0
-5.32883e-020 	0.00360407 	1.99971e-019 	12.7475 	2364.37 	0
-5.37118e-020 	0.00362994 	1.99971e-019 	16.4705 	2376.51 	0
-5.42101e-020 	0.00364023 	1.99971e-019 	16.9515 	2381.17 	0
-5.49972e-020 	0.0036493 	1.99971e-019 	15.5585 	2385.08 	0
-5.58442e-020 	0.00367854 	1.99971e-019 	14.1057 	2393.45 	0
-5.65385e-020 	0.00371543 	1.99971e-019 	13.8747 	2407.26 	0
-5.6962e-020 	0.00371707 	1.99971e-019 	13.8661 	2407.76 	0
-5.65385e-020 	0.00371948 	1.99971e-019 	14.0277 	2408.73 	0
-5.85449e-020 	0.00375537 	1.99971e-019 	15.8029 	2420.8 	0
-5.64793e-020 	0.00377958 	1.99971e-019 	20.3975 	2428.73 	0
-5.73263e-020 	0.00379456 	1.99971e-019 	23.3514 	2432.97 	0
-5.81734e-020 	0.00382285 	1.99971e-019 	18.9321 	2444.64 	0
-5.92923e-020 	0.00383554 	1.99971e-019 	14.9134 	2449.4 	0
-5.88688e-020 	0.00384198 	1.99971e-019 	14.2521 	2451.34 	0
-5.76838e-020 	0.00387751 	1.99971e-019 	15.3265 	2460.14 	0
-5.59042e-020 	0.00391392 	1.99971e-019 	12.7294 	2471.63 	0
-5.40665e-020 	0.00392118 	1.99971e-019 	13.1701 	2473.46 	0
-5.40665e-020 	0.00393146 	1.99971e-019 	13.5806 	2475.29 	0
-5.58864e-020 	0.00396591 	1.99971e-019 	12.3286 	2480.22 	0
-5.66433e-020 	0.00399101 	1.99971e-019 	11.6724 	2484.74 	0
-5.59042e-020 	0.00401116 	1.99971e-019 	12.4322 	2487.95 	0
-5.33631e-020 	0.00403943 	1.99971e-019 	12.5673 	2493.31 	0
-5.2516e-020 	0.00405743 	1.99971e-019 	11.6182 	2496.27 	0
-4.99749e-020 	0.00407155 	1.99971e-019 	11.4841 	2498.64 	0
-4.91279e-020 	0.00410514 	1.99971e-019 	12.6939 	2502.69 	0
-4.74338e-020 	0.00414503 	1.99971e-019 	14.0243 	2507.8 	0
-4.74338e-020 	0.00415449 	1.99971e-019 	13.7567 	2508.71 	0
-4.76839e-020 	0.0041618 	1.99971e-019 	13.171 	2510.05 	0
-4.40457e-020 	0.00420483 	1.99971e-019 	10.5733 	2516.31 	0
-4.56965e-020 	0.00424995 	1.99971e-019 	4.50129 	2521.77 	0
-4.48927e-020 	0.00425644 	1.99971e-019 	4.58056 	2522.43 	0
-4.48494e-020 	0.0042654 	1.99971e-019 	5.55525 	2523.74 	0
-4.48178e-020 	0.00431001 	1.99971e-019 	9.60112 	2529.51 	0
-4.40457e-020 	0.00434086 	1.99971e-019 	10.1116 	2534.97 	0
-4.24622e-020 	0.00436392 	1.99971e-019 	9.25593 	2538.33 	0
-4.41563e-020 	0.00439882 	1.99971e-019 	10.4248 	2542.94 	0
-4.33011e-020 	0.00441993 	1.99971e-019 	9.70172 	2545.54 	0
-4.26299e-020 	0.00443467 	1.99971e-019 	9.68776 	2546.94 	0
-4.17829e-020 	0.004477 	1.99971e-019 	8.89453 	2550.56 	0
-4.20467e-020 	0.00452949 	1.99971e-019 	7.56549 	2554.83 	0
-4.24703e-020 	0.00453468 	1.99971e-019 	7.83065 	2555.18 	0
-4.15046e-020 	0.00454323 	1.99971e-019 	7.98578 	2555.85 	0
-4.06576e-020 	0.00459466 	1.99971e-019 	8.74858 	2559.21 	0
-3.89635e-020 	0.00462431 	1.99971e-019 	6.0393 	2561.35 	0
-3.72694e-020 	0.00465686 	1.99971e-019 	6.81982 	2563.09 	0
-3.61386e-020 	0.00471098 	1.99971e-019 	8.19085 	2566.07 	0
-3.64224e-020 	0.0047204 	1.99971e-019 	8.31432 	2566.38 	0
-3.64224e-020 	0.00472651 	1.99971e-019 	8.31765 	2566.83 	0
-3.5612e-020 	0.00478595 	1.99971e-019 	10.6722 	2569.76 	0
-3.46395e-020 	0.00483473 	1.99971e-019 	10.1503 	2572.79 	0
-3.46395e-020 	0.00485284 	1.99971e-019 	10.6494 	2573.49 	0
-3.63336e-020 	0.00487836 	1.99971e-019 	11.6103 	2574.22 	0
-3.38813e-020 	0.00491845 	1.99971e-019 	12.2547 	2574.63 	0
-3.38813e-020 	0.00494948 	1.99971e-019 	12.6421 	2574.51 	0
-3.5527e-020 	0.00498709 	1.99971e-019 	13.664 	2574.58 	0
-3.72694e-020 	0.00504715 	1.99971e-019 	13.6412 	2578.32 	0
-3.71967e-020 	0.0050579 	1.99971e-019 	13.3594 	2578.83 	0
-3.65448e-020 	0.00506454 	1.99971e-019 	13.1739 	2579.6 	0
-3.48507e-020 	0.0051293 	1.99971e-019 	13.7757 	2585.11 	0
-3.21873e-020 	0.00518409 	1.99971e-019 	13.5592 	2587.29 	0
-2.97315e-020 	0.00520192 	1.99971e-019 	14.0383 	2587.9 	0
-3.14256e-020 	0.00522761 	1.99971e-019 	14.3114 	2588.99 	0
-3.15911e-020 	0.00527549 	1.99971e-019 	13.7735 	2590.56 	0
-2.68486e-020 	0.00530987 	1.99971e-019 	13.2142 	2592.63 	0
-2.85427e-020 	0.00535006 	1.99971e-019 	14.097 	2594.74 	0
-2.26135e-020 	0.00540823 	1.99971e-019 	13.7863 	2600.19 	0
-2.29942e-020 	0.00542646 	1.99971e-019 	13.5242 	2601.6 	0
-2.36675e-020 	0.00544013 	1.99971e-019 	13.318 	2602.72 	0
-2.28204e-020 	0.00550317 	1.99971e-019 	14.0564 	2606.84 	0
-2.68815e-020 	0.0055733 	1.99971e-019 	13.3762 	2611.81 	0
-2.6458e-020 	0.00557849 	1.99971e-019 	13.4071 	2612.19 	0
-2.56109e-020 	0.00558663 	1.99971e-019 	13.4523 	2613.14 	0
-2.29348e-020 	0.00566061 	1.99971e-019 	12.5938 	2621.43 	0
-2.4825e-020 	0.00570937 	1.99971e-019 	13.4071 	2626.18 	0
-2.99072e-020 	0.00574368 	1.99971e-019 	13.8121 	2629.48 	0
-2.65191e-020 	0.0058034 	1.99971e-019 	13.5235 	2635.26 	0
-2.62239e-020 	0.0058296 	1.99971e-019 	12.4683 	2637.71 	0
-2.65356e-020 	0.00584307 	1.99971e-019 	12.3244 	2639.1 	0
-2.06064e-020 	0.005917 	1.99971e-019 	12.8206 	2645.16 	0
-1.65613e-020 	0.00597959 	1.99971e-019 	12.9354 	2651.86 	0
-1.99495e-020 	0.00600655 	1.99971e-019 	13.7904 	2654.54 	0
-1.82554e-020 	0.00604936 	1.99971e-019 	14.3103 	2659.09 	0
-1.69407e-020 	0.00609805 	1.99971e-019 	14.5645 	2663.61 	0
-2.20229e-020 	0.00612925 	1.99971e-019 	13.5217 	2666.29 	0
-2.24076e-020 	0.00618859 	1.99971e-019 	12.9191 	2672.17 	0
-2.49875e-020 	0.00627551 	1.99971e-019 	12.1907 	2683.26 	0
-2.44732e-020 	0.0062806 	1.99971e-019 	12.0456 	2683.94 	0
-2.42439e-020 	0.00628412 	1.99971e-019 	11.9055 	2684.39 	0
-2.17028e-020 	0.00637446 	1.99971e-019 	9.03101 	2695.29 	0
-1.87134e-020 	0.00644402 	1.99971e-019 	7.74054 	2702.08 	0
-1.52466e-020 	0.00646886 	1.99971e-019 	7.48874 	2704.8 	0
-1.18585e-020 	0.00650382 	1.99971e-019 	7.81054 	2709.11 	0
-1.44468e-020 	0.00656419 	1.99971e-019 	7.53409 	2716.64 	0
-8.90892e-021 	0.00660535 	1.99971e-019 	6.59052 	2722.07 	0
-5.52079e-021 	0.00666277 	1.99971e-019 	6.14544 	2729.19 	0
-2.97969e-021 	0.00674917 	1.99971e-019 	6.89422 	2739.46 	0
-5.34007e-021 	0.00676258 	1.99971e-019 	6.90179 	2740.92 	0
-4.23516e-021 	0.00677178 	1.99971e-019 	6.72306 	2742.02 	0
-7.84315e-021 	0.00686365 	1.99971e-019 	6.36431 	2751.79 	0
-5.71102e-021 	0.00694537 	1.99971e-019 	7.0335 	2760.64 	0
-6.77626e-021 	0.00696588 	1.99971e-019 	7.27142 	2762.76 	0
-8.47033e-021 	0.00699931 	1.99971e-019 	7.34441 	2766.53 	0
-1.01644e-020 	0.00706998 	1.99971e-019 	6.70968 	2774.16 	0
-9.7582e-021 	0.0071193 	1.99971e-019 	6.17526 	2778.93 	0
-3.38813e-021 	0.00717818 	1.99971e-019 	6.11848 	2784.63 	0
-8.06413e-021 	0.00724663 	1.99971e-019 	7.23299 	2792.65 	0
-1.35525e-020 	0.00729307 	1.99971e-019 	7.35506 	2797.94 	0
-1.69407e-020 	0.00732838 	1.99971e-019 	7.77445 	2801.65 	0
-1.35525e-020 	0.00740118 	1.99971e-019 	6.33477 	2809.21 	0
-1.48231e-020 	0.00750354 	1.99971e-019 	7.75204 	2816.69 	0
-1.45054e-020 	0.00750485 	1.99971e-019 	7.7617 	2816.77 	0
-1.46113e-020 	0.00750616 	1.99971e-019 	7.76156 	2816.88 	0
-2.03288e-020 	0.00761408 	1.99971e-019 	5.77391 	2826.54 	0
-2.38409e-020 	0.00770264 	1.99971e-019 	4.52136 	2832.37 	0
-2.20229e-020 	0.0077274 	1.99971e-019 	4.29474 	2834.01 	0
-1.52466e-020 	0.00776217 	1.99971e-019 	4.33319 	2835.61 	0
-1.54025e-020 	0.00784226 	1.99971e-019 	3.06623 	2838.96 	0
-1.20251e-020 	0.00789847 	1.99971e-019 	4.38077 	2840.72 	0
-1.88014e-020 	0.00795943 	1.99971e-019 	5.20346 	2842.57 	0
-1.01644e-020 	0.00805917 	1.99971e-019 	5.23813 	2845.3 	0
-8.47033e-021 	0.0080778 	1.99971e-019 	4.89603 	2845.72 	0
-9.31736e-021 	0.00808841 	1.99971e-019 	4.78862 	2845.91 	0
-1.35525e-020 	0.00819766 	1.99971e-019 	4.75133 	2846.59 	0
-1.35525e-020 	0.00828765 	1.99971e-019 	5.30836 	2846.78 	0
-1.35525e-020 	0.0083206 	1.99971e-019 	5.66828 	2846.75 	0
-1.3972e-020 	0.00836948 	1.99971e-019 	6.38966 	2846.68 	0
-1.69407e-020 	0.00844587 	1.99971e-019 	6.02559 	2846.39 	0
-2.03288e-020 	0.00850044 	1.99971e-019 	6.23062 	2846 	0
-3.11243e-020 	0.0085718 	1.99971e-019 	8.04014 	2845.34 	0
-2.5411e-020 	0.00867336 	1.99971e-019 	10.5061 	2844.7 	0
-2.40831e-020 	0.00869875 	1.99971e-019 	10.6555 	2844.52 	0
-2.3881e-020 	0.00871626 	1.99971e-019 	10.6703 	2844.37 	0
-3.23514e-020 	0.00882731 	1.99971e-019 	12.3144 	2843.93 	0
-2.92701e-020 	0.0089358 	1.99971e-019 	14.2195 	2842.77 	0
-3.04932e-020 	0.00895736 	1.99971e-019 	14.6755 	2842.33 	0
-3.72694e-020 	0.00898846 	1.99971e-019 	15.4174 	2842.12 	0
-4.00383e-020 	0.00908923 	1.99971e-019 	16.088 	2841.34 	0
-4.22963e-020 	0.00915905 	1.99971e-019 	15.8124 	2841.37 	0
-3.89081e-020 	0.00922209 	1.99971e-019 	17.5022 	2840.55 	0
-4.73785e-020 	0.00931334 	1.99971e-019 	19.2488 	2839.86 	0
-4.7806e-020 	0.00935617 	1.99971e-019 	19.9345 	2839.17 	0
-4.7042e-020 	0.00938538 	1.99971e-019 	20.2259 	2839.23 	0
-4.7042e-020 	0.00948914 	1.99971e-019 	26.6913 	2837.07 	0
-5.56251e-020 	0.00961783 	1.99971e-019 	29.9315 	2838.84 	0
-5.56251e-020 	0.0096264 	1.99971e-019 	31.1284 	2838.64 	0
-5.59042e-020 	0.00963893 	1.99971e-019 	31.9707 	2838.81 	0
-5.0955e-020 	0.00977075 	1.99971e-019 	39.8999 	2838.91 	0
-5.42101e-020 	0.00984583 	1.99971e-019 	41.9577 	2839.68 	0
-4.74338e-020 	0.0099051 	1.99971e-019 	51.9206 	2835.92 	0
-4.88984e-020 	0.00999915 	1.99971e-019 	59.2772 	2832.85 	0
-4.75149e-020 	0.0100469 	1.99971e-019 	56.7171 	2831.86 	0
-5.0822e-020 	0.0100789 	1.99971e-019 	57.5208 	2828.58 	0
-5.28283e-020 	0.010189 	1.99971e-019 	72.3982 	2813.04 	0
-4.55192e-020 	0.0103203 	1.99971e-019 	77.4448 	2799.27 	0
-4.57398e-020 	0.0103343 	1.99971e-019 	81.3467 	2796.86 	0
-4.72133e-020 	0.010355 	1.99971e-019 	84.746 	2794.75 	0
-3.80486e-020 	0.0104755 	1.99971e-019 	76.4785 	2763.02 	0
-4.74338e-020 	0.0105668 	1.99971e-019 	47.5473 	2747.32 	0
-5.00614e-020 	0.0106236 	1.99971e-019 	43.9427 	2727.93 	0
-4.40457e-020 	0.0107037 	1.99971e-019 	40.8788 	2704.94 	0
-3.72694e-020 	0.0107659 	1.99971e-019 	44.3088 	2674.91 	0
-4.06576e-020 	0.0107982 	1.99971e-019 	39.5039 	2667.93 	0
-3.97731e-020 	0.0109041 	1.99971e-019 	54.1298 	2644.42 	0
-4.06576e-020 	0.0110462 	1.99971e-019 	35.8743 	2624.86 	0
-4.15445e-020 	0.0110645 	1.99971e-019 	31.8663 	2621.92 	0
-3.98505e-020 	0.0110898 	1.99971e-019 	31.0677 	2618.53 	0
-3.95865e-020 	0.0112219 	1.99971e-019 	25.5352 	2606.97 	0
-4.0259e-020 	0.0113207 	1.99971e-019 	21.2088 	2593.26 	0
-3.38813e-020 	0.0113758 	1.99971e-019 	11.1428 	2585.22 	0
-3.38813e-020 	0.0114521 	1.99971e-019 	19.9929 	2573.82 	0
-3.72694e-020 	0.0115306 	1.99971e-019 	30.4346 	2564.47 	0
-4.06576e-020 	0.0116138 	1.99971e-019 	31.457 	2551.48 	0
-3.38813e-020 	0.0116937 	1.99971e-019 	13.8288 	2543.75 	0
-4.06576e-020 	0.0117387 	1.99971e-019 	15.9417 	2538.38 	0
-3.76542e-020 	0.0118508 	1.99971e-019 	10.5652 	2521.37 	0
-4.14085e-020 	0.0119946 	1.99971e-019 	7.59205 	2505.57 	0
-4.10811e-020 	0.0119993 	1.99971e-019 	6.95546 	2505.37 	0
-4.19281e-020 	0.0120047 	1.99971e-019 	6.20107 	2504.63 	0
-5.42101e-020 	0.0121618 	1.99971e-019 	-4.16316 	2501.17 	0
-5.75982e-020 	0.0122967 	1.99971e-019 	-10.9267 	2488.2 	0
-5.66846e-020 	0.0123343 	1.99971e-019 	-12.9867 	2489.47 	0
-5.75982e-020 	0.01238 	1.99971e-019 	-17.8785 	2489.36 	0
-5.42101e-020 	0.0125128 	1.99971e-019 	-15.3831 	2505.93 	0
-5.8323e-020 	0.0126136 	1.99971e-019 	-15.859 	2499.37 	0
-5.15467e-020 	0.0126879 	1.99971e-019 	-16.2095 	2500.89 	0
-5.15467e-020 	0.0127855 	1.99971e-019 	-21.2726 	2496.48 	0
-4.74338e-020 	0.0128645 	1.99971e-019 	-19.696 	2498.33 	0
-3.72694e-020 	0.0129256 	1.99971e-019 	-18.5796 	2497.24 	0
-2.03288e-020 	0.0130406 	1.99971e-019 	-19.6482 	2497.7 	0
-1.35525e-020 	0.0131649 	1.99971e-019 	-22.8594 	2488.57 	0
-1.01644e-020 	0.0132032 	1.99971e-019 	-22.1802 	2486.78 	0
-7.48566e-021 	0.0132348 	1.99971e-019 	-20.9022 	2485.43 	0
0 	0.0133598 	1.99971e-019 	-20.6683 	2486.24 	0
1.69407e-021 	0.0134772 	1.99971e-019 	-18.3293 	2478.25 	0
0 	0.0135033 	1.99971e-019 	-17.2751 	2477.33 	0
-1.69407e-021 	0.0135282 	1.99971e-019 	-15.8289 	2476.03 	0
1.35525e-020 	0.013658 	1.99971e-019 	-10.9273 	2471.93 	0
9.4388e-021 	0.0137971 	1.99971e-019 	-6.82889 	2467.59 	0
9.4388e-021 	0.013805 	1.99971e-019 	-6.7035 	2467.43 	0
8.22698e-021 	0.014 	1.99971e-019 	-3.06705 	2465.24 	0