# p  FACE_DATA 23640
#  x  y  z  p
-0.00296834 0.0159323 0 143.008
0.000794309 0.0100339 0 249.95
0.00690979 0.0130745 0 25.9277
0.000158008 0.0018211 0 137128
-0.000662165 0.0113619 0 358.193
-0.00203768 0.00587959 0 1993.24
-0.000220137 0.00748479 0 197.367
0.00214531 0.0125841 0 803.034
-0.00164167 0.00702341 0 1111.48
0.00020958 0.00306993 0 2222.88
4.59799e-005 0.00273939 0 125854
0.00075606 0.00524313 0 416.399
0.00107075 0.0257944 0 300.499
-0.000458708 0.0115994 0 291.87
-0.000900467 0.00350322 0 3308.32
-0.00222355 0.00655891 0 1659.98
0.00442703 0.0182294 0 64.5307
7.09705e-005 0.00299924 0 82755.2
-2.45517e-005 0.00292714 0 107163
-0.000543852 0.00394831 0 1116.54
7.98376e-005 0.00283498 0 120851
0.00510868 0.0124654 0 18.0477
7.37866e-005 0.00284217 0 120016
-0.000122136 0.00287943 0 119138
0.00117211 0.0120328 0 532.121
0.000340217 0.00636002 0 301.073
-1.62375e-005 0.00331413 0 9896.03
0.000288499 0.00391811 0 1584.04
0.00604323 0.0215883 0 37.2845
0.0015748 0.0199438 0 482.877
0.000642306 0.0286533 0 236.622
-0.000788091 0.000235815 0 166945
8.45076e-005 0.00283429 0 121054
-0.000766033 0.00453527 0 586.685
-0.000556446 0.00360452 0 1182.85
-0.000694613 0.00330261 0 2886.97
0.00425461 0.0181246 0 69.1036
0.00563158 0.0299784 0 130.755
0.00374311 0.0125452 0 31.5235
-0.000168184 0.00269727 0 129573
0.00100487 0.00483203 0 434.306
-0.00170325 0.00704586 0 1159.41
-0.00047461 0.0123053 0 357.981
-0.00401905 0.0129379 0 27.5455
0.000128446 0.00148328 0 137994
0.000108141 0.00315803 0 13695.9
0.00299545 0.0176096 0 131.7
0.00122698 0.00708374 0 289.218
0.000214903 0.00307399 0 2191.88
0.00225142 0.0126586 0 816.373
0.000204708 0.00068009 0 147919
4.25297e-005 0.00299727 0 85780
-0.000477288 0.00315875 0 2669.88
-0.00378992 0.02149 0 72.2787
0.000139812 0.00181138 0 137108
0.000208917 0.00302796 0 2146.13
-0.00160791 0.0049468 0 2269.72
0.000941143 0.00995448 0 397.247
8.9442e-006 0.010956 0 99.7304
-0.000434056 0.00133506 0 139293
0.000566946 0.0289715 0 226.839
-7.40414e-005 0.003214 0 14112.8
-0.000145493 0.00239699 0 134082
3.42483e-005 0.00298986 0 89495.4
0.000575544 0.00987125 0 119.461
3.71363e-005 0.00299095 0 88907.8
-0.00247102 0.00772987 0 1480.9
0.00096928 0.0118325 0 472.796
-9.22697e-005 0.00299969 0 73375.7
-0.000570617 0.0122505 0 381.078
-0.000211411 0.00254812 0 132883
-0.000765289 0.00457715 0 574.438
8.13068e-005 0.00294139 0 107969
-0.00437678 0.0203082 0 60.7015
0.00226862 0.00661101 0 1872.03
-0.000832194 0.000220534 0 163911
-0.000164868 0.00301134 0 2290.48
0.0012393 0.0259768 0 287.097
-2.48279e-005 0.00292318 0 108057
0.000116572 0.00245177 0 133258
9.77655e-005 0.00313112 0 16704.1
0.000279024 0.00328636 0 3071.27
-5.75605e-005 0.0116355 0 123.936
-7.47936e-005 0.0117342 0 122.709
0.000518168 0.00993111 0 113.439
-0.000154608 0.0030256 0 2338.31
4.53443e-005 0.00299839 0 85259.3
-0.000161071 0.0027724 0 126893
0.000104836 0.00293916 0 110376
-0.00100104 0.00361077 0 3120.15
-0.000510005 0.00921774 0 130.019
0.00100295 0.0100141 0 448.162
-0.000646084 0.00336418 0 2148.49
6.96906e-005 0.00293287 0 108387
-1.67264e-005 0.00300289 0 84035.6
0.000173509 0.0227352 0 494.154
3.17037e-005 0.00298455 0 91543.9
0.000312244 0.00306502 0 2532.35
-0.00212604 0.00906512 0 1065.6
-0.00049218 0.00322389 0 2189.35
0.000341345 0.00323843 0 1914.82
-0.00385942 0.0216496 0 73.3168
-0.000125834 0.0028813 0 119021
0.00524627 0.0255212 0 81.9414
0.000713781 0.0036837 0 852.334
0.00601727 0.0299149 0 123.447
-0.000344095 0.00203632 0 136956
-0.0047341 0.0239481 0 54.7648
-0.000460773 0.00539436 0 430.789
-0.00196148 0.00905338 0 974.755
0.00143807 0.0303782 0 199.224
7.94637e-005 0.00293894 0 108268
0.00013473 0.00481908 0 691.421
0.00105264 0.00484794 0 431.26
0.000112877 0.0030262 0 7562.92
-0.00781161 0.0282885 0 36.2155
-0.000846622 0.00344471 0 3335.37
-0.00206201 0.0306837 0 183.523
-0.00313594 0.0160362 0 126.063
0.00144289 0.0198776 0 515.866
-0.000135136 0.00286502 0 119977
-0.000205101 0.000950881 0 140061
0.000372212 0.00308853 0 2638.78
0.000370404 0.000795868 0 141700
0.000201681 0.00347815 0 3788.09
-0.000147808 0.00278598 0 125594
0.000218103 0.000637733 0 154713
0.000195722 0.00313377 0 3983.87
-0.00203813 0.00594128 0 1933.96
0.00112067 0.00510142 0 394.215
5.16573e-005 0.00373385 0 2600.11
0.000381501 0.00336875 0 1899.89
0.000860715 0.0258401 0 317.319
-0.000116556 0.00339842 0 5677.59
-0.00513668 0.0257477 0 91.4287
-0.000162894 0.00277847 0 126719
8.27341e-005 0.00277738 0 124546
0.0010674 0.0118759 0 505.449
-4.09992e-005 0.00275121 0 125248
3.29665e-005 0.00297369 0 95513.1
-0.00204547 0.0090065 0 1038.78
-0.00160474 0.0048986 0 2369.15
8.25825e-005 0.00294819 0 106482
4.00473e-005 0.00273627 0 125942
-9.41642e-005 0.00295571 0 105787
0.00150619 0.00997327 0 666.602
8.22134e-005 0.00268838 0 128268
-0.000160791 0.00267895 0 129732
-0.000596112 0.00909085 0 134.394
-9.31423e-005 0.00299701 0 80430.9
0.00235681 0.0126226 0 847.501
0.00203765 0.00557212 0 2331.49
-0.000165794 0.0115731 0 139.136
6.0159e-005 0.0021996 0 135302
0.000371981 0.00362464 0 1919.49
-0.00733688 0.029685 0 80.8053
-0.000180414 0.00743151 0 198.61
-0.000357207 0.004885 0 610.365
0.00253943 0.00813968 0 1437.72
-1.29377e-005 0.00332967 0 9628.08
-0.0010235 0.00361199 0 3218.35
-0.000285329 0.0030748 0 2319.56
-0.000681311 0.00329291 0 2834.16
-0.00260727 0.00895038 0 1052.92
0.00788717 0.0276195 0 28.5789
0.0089704 0.0287411 0 24.759
-0.000270534 0.00232157 0 135407
-0.00014416 0.00312601 0 8870.02
-0.000337662 0.00201762 0 137035
0.0003962 0.00337513 0 1849.07
0.00121317 0.00701782 0 287.2
0.000116206 0.00302915 0 6755.57
0.00225197 0.00666935 0 1759.62
-0.000507665 0.00548922 0 413.03
-0.000231863 0.00226746 0 135492
0.000244361 0.00226851 0 135607
0.00111028 0.00505498 0 394.31
0.000121223 0.00304184 0 7650.33
0.00012049 0.00243938 0 133470
-0.0013386 0.0186068 0 372.007
0.000102064 0.00149733 0 137947
0.000147362 0.00301363 0 2052.73
0.00106981 0.0119939 0 503.957
-0.000365953 0.00411169 0 1188.45
0.00557444 0.020358 0 37.9844
4.86089e-005 0.00307386 0 42660.4
-0.000177413 0.0035472 0 3470.8
-0.000632994 0.00339325 0 1736.91
0.000487307 0.00130985 0 139622
-0.000349424 0.00402777 0 1323.94
-0.00177251 0.00629586 0 1572.97
-7.92525e-005 0.00273084 0 126659
0.000241714 0.00100077 0 139792
-0.000154516 0.0114773 0 134.991
0.00502442 0.0222916 0 51.7901
-0.000166546 0.00272686 0 128681
0.000707598 0.00365891 0 882.109
-0.00157418 0.0046046 0 2624.78
0.000122725 0.00301099 0 2204.06
0.000172305 0.00324558 0 6460.01
7.46185e-006 0.00286175 0 116706
0.00533293 0.0140838 0 19.0223
0.00520504 0.0284215 0 144.06
-0.00170266 0.00713636 0 1161.29
4.38765e-005 0.00290514 0 111574
0.00035679 0.0099507 0 109.034
0.000120447 0.00300871 0 2395.03
7.85992e-005 0.00284146 0 120309
0.000146556 0.00306157 0 4858.6
-0.000265484 0.00230758 0 135490
-0.000558184 0.0114136 0 313.258
0.000873988 0.011905 0 446.173
0.00195145 0.0157285 0 310.425
0.000415959 0.00988952 0 109.209
0.00204861 0.00551694 0 2374.27
0.00159497 0.00893937 0 770.31
0.00125366 0.00690066 0 356.544
-0.000537482 0.00397822 0 1079.4
-0.00245206 0.00890865 0 1180.95
-0.00591638 0.015069 0 17.1866
0.00182541 0.0157696 0 326.358
-6.39179e-005 0.00274368 0 125771
1.24162e-005 0.00286011 0 116986
0.000785526 0.00520879 0 424.798
0.000119132 0.00288179 0 118751
0.000107617 0.00492998 0 649.412
-0.000398708 0.00617064 0 305.094
-0.00031795 0.000861625 0 140910
-0.0054742 0.0145195 0 18.4135
-0.00050603 0.0093045 0 130.104
-0.00281713 0.0160093 0 155.362
-0.00521587 0.0225645 0 46.2439
0.000631138 0.00410172 0 859.845
0.00077675 0.0118594 0 414.008
-0.000339893 0.00491785 0 602.381
0.000278502 0.0033019 0 3021.29
-0.000206291 0.0025551 0 132607
0.0015782 0.00885327 0 775.102
-0.000601058 0.00917374 0 135.029
0.000107852 0.00308374 0 15950.5
0.000329157 0.00324408 0 2113.56
-0.000107456 0.0030138 0 7061.94
0.000995869 0.00478803 0 438.093
-0.00176263 0.00715431 0 1187.33
0.000133123 0.00190024 0 136826
0.00428452 0.0222831 0 64.9618
0.00249322 0.0134845 0 441.296
0.000209201 0.00303326 0 2214.34
1.124e-005 0.00241342 0 133430
-0.000138897 0.00282521 0 123945
-0.000422518 0.00130967 0 139411
0.000897928 0.00602889 0 302.385
0.00296246 0.0177704 0 130.861
-0.000240922 0.0022558 0 135592
0.000161456 0.0106342 0 99.9308
-0.000169117 0.00269067 0 129594
-0.00600599 0.0132277 0 18.7821
-0.00498542 0.0226529 0 50.0744
0.00035646 0.00189436 0 137397
0.000360867 0.00193124 0 137287
0.000188008 0.00159518 0 137839
0.00315697 0.0294361 0 200.58
0.000380728 0.00331446 0 1812.21
-0.000407732 0.00541329 0 443.318
0.00599218 0.0187772 0 30.216
-0.000475668 0.0124289 0 358.084
9.243e-005 0.00339173 0 6491.08
-0.0022067 0.00902531 0 1128.66
0.000138287 0.010546 0 100.432
-4.59787e-005 0.00300592 0 80819.8
0.000475334 0.00325723 0 1662.09
0.0081269 0.0233608 0 21.4247
-0.000136448 0.00286953 0 120611
0.000465099 0.00132931 0 139589
0.000196949 0.00312437 0 4021.25
-0.000725979 0.00459524 0 625.898
0.00566025 0.0201173 0 36.4411
-0.000237093 0.000937504 0 140234
-7.15727e-006 0.00298867 0 89921.3
-0.000556128 0.00552312 0 402.784
-0.000151452 0.00278159 0 126244
0.00604583 0.0167381 0 25.4406
5.44524e-005 0.00307484 0 40897.5
3.5211e-005 0.00270778 0 127101
-0.00210731 0.0068781 0 1592.09
8.91266e-005 0.00319599 0 14214.8
-0.00242079 0.00974735 0 1053.16
0.00135885 0.00413507 0 2957.3
-0.00108228 0.00797081 0 202.467
3.29303e-005 0.00271504 0 126730
-0.000508078 0.0208168 0 660.751
-0.00472826 0.0198065 0 52.6418
0.00152826 0.0090827 0 712.086
-0.00252462 0.00897287 0 1120.04
-4.09377e-005 0.0027578 0 124907
-0.00186927 0.0116808 0 784.151
0.00108447 0.00518193 0 380.644
-0.00419392 0.0202211 0 65.5989
0.000296615 0.00594885 0 355.774
0.00365557 0.0156923 0 98.0928
-0.000138643 0.00311989 0 9428.06
3.44704e-005 0.00298593 0 91009.8
-0.000249911 0.000891772 0 140346
0.00110337 0.0099601 0 518.798
8.04689e-005 0.00279643 0 123317
0.00779157 0.0249956 0 24.8481
0.000351464 0.00337107 0 2203.58
-0.00012879 0.00323538 0 9157.6
0.000155895 0.00168996 0 137511
8.56943e-005 0.00294739 0 107009
0.0053023 0.0238774 0 47.0947
0.000238423 0.00318026 0 3379.1
0.000230406 0.00226533 0 135550
-5.15866e-005 0.00292996 0 107525
2.57476e-005 0.00286927 0 116072
0.000105066 0.00340141 0 6006.62
-0.0006343 0.00341198 0 1598.83
-0.00683177 0.0130924 0 22.8857
-1.54609e-005 0.00299907 0 85704.6
-0.00215958 0.00656839 0 1637.21
0.00301179 0.0141363 0 174.077
-0.000723924 0.00463742 0 605.462
-0.000555458 0.00358088 0 1228.51
0.000287933 0.00394954 0 1512.7
-0.00525881 0.0259389 0 90.9837
-0.000235386 0.00314485 0 2945.33
-0.000664883 0.00104525 0 141641
0.00182857 0.0107598 0 793.699
0.00289308 0.0133881 0 250.878
0.000556851 0.000459359 0 156061
-6.31462e-005 0.00306344 0 41321.4
0.00204396 0.0126442 0 768.794
-0.000369072 0.00408052 0 1206.31
-0.00018247 0.00378321 0 2203.28
0.000579156 0.0162179 0 906.985
0.00117061 0.0100074 0 539.23
0.000129771 0.00301154 0 2148.92
0.00050022 0.00329429 0 1515.7
-0.00194273 0.0117557 0 818.439
0.000295066 0.00600891 0 354.742
-0.000154748 0.0030213 0 2227.03
8.51353e-005 0.00297491 0 98910.4
0.000370749 0.00364798 0 1898.7
0.00032381 0.000892659 0 140618
-0.000114683 0.00273658 0 127063
7.10543e-005 0.0030026 0 79203.6
-9.6647e-005 0.00324264 0 10927.4
0.000733896 0.00537107 0 414.736
0.000155197 0.00494735 0 607.964
0.000610019 0.00412319 0 884.27
0.000353717 0.00194986 0 137248
-0.000244432 0.00314026 0 2632.8
-0.00502653 0.0232658 0 49.5853
-0.00178789 0.0309983 0 181.416
-0.000579723 0.00361754 0 1174.41
0.00813841 0.0273314 0 25.4608
-0.002496 0.0131044 0 518.29
-0.00431729 0.0290645 0 164.357
-0.000157683 0.00240005 0 134121
-6.09633e-005 0.00273787 0 126160
-0.000172602 0.00356894 0 3306.85
5.95493e-005 0.00280503 0 122365
3.59382e-005 0.00297531 0 95002.8
0.0038221 0.0156522 0 88.2042
0.00151814 0.00899556 0 723.317
0.00891208 0.0209237 0 14.9382
0.00932881 0.0247628 0 18.1578
0.000401147 0.00319889 0 1707.27
-1.37134e-005 0.00292236 0 108014
-0.00149883 0.0199029 0 433.366
-0.000151382 0.00307642 0 5451.55
-9.99299e-005 0.00297786 0 99018.6
0.00528439 0.0241343 0 47.1654
2.61097e-005 0.00286432 0 116635
0.000206875 0.00349712 0 3612.8
-0.00509797 0.0234717 0 50.1335
-0.000597722 0.000953511 0 142248
-0.00793898 0.0155863 0 24.3011
0.00183935 0.0106624 0 790.621
7.52069e-005 0.00339368 0 6621.41
-7.77056e-005 0.00294222 0 106965
-9.8985e-005 0.00297992 0 98218.9
0.00161823 0.00911669 0 766.175
8.21842e-005 0.00297527 0 98336.6
-0.00188133 0.00900925 0 931.09
-0.00617827 0.0275965 0 88.7375
-0.000490092 0.00321051 0 2338.35
0.00945115 0.0288751 0 20.9331
-0.00016434 0.00272067 0 128915
-0.00797941 0.0222445 0 19.1464
-4.01564e-005 0.00301654 0 75932
-0.00180498 0.00506765 0 2457.6
-0.000161305 0.00301261 0 2333.81
-0.000482063 0.00316965 0 2639.2
-0.000942791 0.00378901 0 2038.54
-0.000134053 0.00282435 0 123648
0.000242746 0.000963685 0 139934
0.00525461 0.0274919 0 137.942
0.00306352 0.0179257 0 124.629
-0.000120066 0.00324295 0 9375.06
-0.00319507 0.0125029 0 110.904
-0.000290892 0.00233844 0 135431
0.00159844 0.00482417 0 2375.18
0.00787978 0.0236538 0 23.3454
0.00145057 0.0259009 0 306.19
-0.000336257 0.00619409 0 301.858
-0.000333917 0.00172186 0 137833
0.00577509 0.0216659 0 40.3797
0.000667048 0.00332313 0 2852.63
0.00248969 0.00807562 0 1447.4
-0.00160944 0.00467215 0 2697.71
1.98969e-005 0.00242157 0 133381
0.000286635 0.0021356 0 136381
-0.00161117 0.00618199 0 1265.18
7.54635e-005 0.00268391 0 128362
0.00101663 0.00497361 0 415.398
9.78423e-005 0.00320089 0 13179.8
-0.000282098 0.0245537 0 364.602
0.00160534 0.0053807 0 1738.34
0.000645555 0.00426047 0 805.476
0.000344665 0.00191282 0 137350
-4.37224e-005 0.0030135 0 76984.9
0.000410526 0.00592784 0 343.158
-0.00161438 0.00462874 0 2728.94
0.000197339 0.00307463 0 2463.99
-0.00787948 0.0250527 0 24.3523
0.000365567 0.000836364 0 141187
0.000428529 0.0031113 0 2731.55
6.29689e-005 0.00280138 0 122770
-0.00260928 0.0115127 0 998.644
0.00511854 0.0182191 0 43.9071
-0.000191506 0.0013612 0 138460
0.000255298 0.00234631 0 135090
7.80872e-005 0.00285378 0 119381
-6.93966e-006 0.00361778 0 3666.99
-0.000112834 0.00273034 0 127313
-0.000151306 0.00308356 0 5810.18
0.000794921 0.00339323 0 3167.14
0.000120559 0.00308016 0 12245.8
-0.00060963 0.000994212 0 141933
-0.000187211 0.00375918 0 2269.51
-0.000179749 0.00239602 0 134272
0.000583853 0.00320912 0 3127.55
-0.000220391 0.00307379 0 2303.95
-3.20721e-005 0.00313154 0 29888.8
-0.00240166 0.00829286 0 1335.37
-0.000107553 0.0032363 0 10437.5
0.000485775 0.00324734 0 1902.84
-1.6528e-005 0.00283252 0 119514
0.000388916 0.00319175 0 1705.65
-0.000191501 0.000101552 0 268636
-0.00244196 0.00780076 0 1477.42
-0.000237142 0.00223825 0 135719
-0.00179252 0.00511195 0 2408.95
7.86645e-005 0.00300926 0 69426.9
-0.00578012 0.0268724 0 94.8615
-0.00101007 0.00801211 0 182.394
0.000363332 0.00337974 0 2179.87
0.000391279 0.00186159 0 137612
0.000433244 0.00317308 0 2340.12
0.00161612 0.00543442 0 1742.59
-0.00207993 0.00693738 0 1525.62
0.000483914 0.00474879 0 667.595
0.000802557 6.40842e-005 0 189245
0.00066144 0.00330597 0 2956.09
0.00141767 0.0197289 0 516.76
-0.000651775 0.00329699 0 2770.08
0.000282152 0.00304241 0 2293.22
-0.000357054 0.00319624 0 1733.07
-0.00178284 0.00623412 0 1595.82
3.8992e-005 0.00380209 0 2429.54
-0.00100109 0.0210667 0 561.964
0.000165033 0.00158259 0 137840
0.00864187 0.0174253 0 25.7437
0.00315453 0.0128329 0 144.431
-8.64597e-005 0.00318341 0 14988.3
-0.000259494 0.0126492 0 326.055
0.000466396 0.000355167 0 186291
0.000246728 0.00318708 0 3230.68
-0.000724122 0.000493878 0 150548
-0.00236534 0.0089472 0 1204.7
-0.00585899 0.0184819 0 31.5561
-0.000109395 0.00425783 0 1191.19
-0.000225082 0.00307869 0 2280.98
0.00116126 0.00383867 0 3150.44
0.000146244 0.00305529 0 4372.8
0.000106639 0.00285591 0 120349
0.00516349 0.0142403 0 19.2853
-0.000547118 0.0281975 0 251.521
-0.00314055 0.0188201 0 98.4079
6.39205e-005 0.0034062 0 6231.55
0.000746714 0.00049437 0 150284
0.00226648 0.0258744 0 270.798
-0.000137355 0.00283875 0 122608
0.00173233 0.0108179 0 740.413
-0.000334456 0.00625618 0 302.055
-0.000652252 0.00338145 0 2039.82
-6.89277e-005 0.00306466 0 37668.2
0.000126795 0.00304178 0 5630.32
0.00478399 0.0277755 0 158.427
0.000516287 0.0229306 0 482.169
5.89116e-005 0.00254342 0 131586
-0.00795861 0.0246948 0 24.1707
0.00133689 0.00999394 0 614.407
-0.000118825 0.0220921 0 573.582
6.34909e-005 0.0107046 0 99.3728
-0.000946741 0.00381309 0 1953.35
0.00581241 0.0241952 0 41.4786
-0.00487736 0.01991 0 50.8491
0.00170829 0.0256098 0 309.144
9.98067e-005 0.00316224 0 14706.4
0.00308063 0.0142797 0 165.976
-0.000279242 0.00307977 0 2257.32
-0.000183934 0.00303725 0 2258.7
7.83288e-005 0.00286324 0 118189
-0.000440884 0.00514493 0 489.077
0.000455558 0.00477565 0 647.993
0.00520625 0.0221693 0 49.3692
-0.00179507 0.00722781 0 1199.82
5.54873e-005 0.00266826 0 128642
-0.00157971 0.00456195 0 2679.47
4.18607e-005 0.00302762 0 69503.9
-0.000194972 5.19224e-005 0 270825
-0.000846289 0.00342394 0 3510.83
-0.00105965 0.00823661 0 221.32
0.000163413 0.00479131 0 701.407
-8.2874e-005 0.00288534 0 116227
0.00157378 0.00552232 0 1558.4
-7.66839e-005 0.00293931 0 107593
0.000101978 0.0109948 0 97.1286
-0.000363872 0.00601296 0 325.993
0.000117978 0.00287815 0 119213
0.000219153 0.00318835 0 3954.33
-0.00163196 0.00449872 0 2892.63
-0.000221409 0.00303399 0 2339.78
-0.000370966 0.0244074 0 377.368
-0.000466554 0.00315829 0 2608.14
0.000396164 0.00331941 0 1716.79
-0.00482666 0.0238063 0 54.3811
0.00133411 0.00522841 0 1072.53
-0.00267568 0.00982141 0 1195.3
-0.000480207 0.0219659 0 563.278
0.00177473 0.0106071 0 772.797
0.000428512 0.00597987 0 342.901
0.00330832 0.0202369 0 97.0756
-0.00036699 0.012473 0 331.538
-0.000901486 0.00347959 0 3376.78
-9.70158e-005 0.00294708 0 107869
-0.00110466 0.0144253 0 555.609
-0.00107199 0.0143087 0 552.965
0.000113095 0.0030798 0 14602.1
0.000776547 0.0117402 0 413.899
-0.000196596 0.00302496 0 2222.97
-0.00581483 0.0148124 0 18.0815
0.000125326 0.00308478 0 11470.7
-0.00172589 0.0230235 0 380.967
-0.00123798 0.0114294 0 536.163
-0.000106038 0.00301072 0 7065.99
7.68012e-005 0.00277918 0 124326
-0.000218387 0.00226751 0 135486
0.00288382 0.0120736 0 709.428
0.000136685 0.00272066 0 128192
0.00126396 0.00994364 0 592.74
0.000169734 0.00323168 0 6671.27
3.33298e-005 0.00296283 0 99025.4
7.38909e-005 0.00285244 0 119324
0.00226662 0.00684142 0 1633.91
-4.80444e-005 0.00288948 0 114132
0.000117291 0.00304527 0 9991.58
0.00044057 0.00316393 0 2459.03
0.00025781 0.000139806 0 252451
-0.000553437 0.0115383 0 334.359
0.00174054 0.0109254 0 747.562
-0.00657824 0.0304887 0 102.621
-0.00287878 0.0309438 0 173.228
-1.74214e-005 0.00292383 0 107763
0.000417861 0.00311152 0 2672.71
-0.000158816 0.00302837 0 2378.56
0.000540608 0.00339996 0 1175.5
0.00322243 0.0179545 0 110.246
-0.000159371 0.0013528 0 138419
0.000126077 0.0159893 0 1104.73
-0.00432652 0.0294311 0 165.141
0.0015673 0.00546801 0 1606.71
-5.0904e-005 0.00292621 0 108322
-0.000106737 0.00293051 0 111797
0.00275932 0.0110589 0 1025.88
0.000556951 0.00340784 0 1181.9
0.000399007 0.0063813 0 286.24
-4.55764e-005 0.00288684 0 114385
5.78688e-005 0.00240298 0 133577
-0.00135948 0.0128543 0 606.663
0.00105587 0.00489705 0 422.249
-0.00180772 0.00736401 0 1166.75
8.62884e-005 0.0107917 0 99.2396
-1.73838e-005 0.00299616 0 87071.4
-0.000559779 0.00402893 0 1005.79
-0.000129894 0.00339006 0 5676.48
-0.00108645 0.0209701 0 572.381
-0.000355289 0.00318516 0 1776.31
6.75287e-005 0.00268766 0 128091
-1.6399e-005 0.00282695 0 120048
0.000375645 0.00184967 0 137624
0.000226595 0.00318087 0 3674.36
-0.00157723 0.0197887 0 411.112
0.000153682 0.00302297 0 1975.51
-0.000983791 0.00376429 0 2469.57
0.00320404 0.0139037 0 143.994
-0.000399729 0.0051532 0 522.101
-8.43671e-005 0.0028893 0 115872
0.00153091 0.0204307 0 488.722
0.0023948 0.0125217 0 846.99
0.000662239 0.00525468 0 441.643
-0.00103759 0.0179087 0 540.823
-0.00194218 0.00558429 0 2271.05
-0.000960129 0.00376594 0 2315.86
-0.000309837 0.00306474 0 2453.98
0.00162461 0.00920594 0 778.986
0.00346181 0.0203111 0 89.8823
0.000412094 0.000782235 0 141979
4.10836e-005 0.00290739 0 111235
0.00107752 0.00513333 0 391.42
-0.00139776 0.00696247 0 587.447
5.83714e-005 0.0023895 0 133756
0.000501828 0.0119171 0 343.506
-2.97555e-005 0.00300349 0 83316.8
0.00113092 0.00612109 0 281.323
3.11664e-005 0.00285722 0 117470
-0.000756348 0.0223669 0 484.445
0.000606022 0.00322532 0 3148.42
0.00858419 0.0213223 0 15.5652
0.00228739 0.00873166 0 1220.9
-0.00330691 0.0124678 0 74.4895
-0.00135503 0.018735 0 375.58
-0.00782909 0.0173425 0 15.2627
0.000179373 0.00168518 0 137549
0.000181353 0.0228576 0 494.304
0.00116853 0.00608209 0 292.557
0.00534216 0.0272787 0 139.726
0.000808836 0.00340365 0 3165.23
-0.00176706 0.00728799 0 1170.45
0.000366125 0.00308127 0 2708.15
0.000142062 0.00271694 0 128388
0.000456136 0.0264018 0 302.203
0.000149779 0.00301624 0 1983.88
8.09965e-005 0.015903 0 1096.55
3.07264e-005 0.00286231 0 116925
-0.000148146 0.00339011 0 5309.78
-0.0064378 0.0277565 0 89.9564
0.00072806 0.00532362 0 415.739
-0.00065633 0.00335203 0 2348.69
-0.000360464 0.000878987 0 141054
-9.67537e-005 0.00295742 0 105729
-0.000484113 0.00948683 0 128.453
-0.000565445 0.00399845 0 1031.38
0.000588623 0.00111811 0 141019
0.000130395 0.00304539 0 5734.5
0.000107754 0.00285149 0 120735
0.00165731 0.0250536 0 329.133
0.00285988 0.0119675 0 832.228
-9.54028e-005 0.00428588 0 1160.76
-0.000124414 0.00317156 0 11099.8
-0.00814733 0.0285856 0 36.4607
-0.000216377 0.0031251 0 3188.23
0.00549751 0.012219 0 19.4251
-0.00550796 0.012201 0 16.828
0.00287309 0.0132504 0 260.141
0.000396043 0.00090361 0 140997
-9.96587e-005 0.00294535 0 108582
-0.00215947 0.00674928 0 1637.43
-0.000289559 0.000893856 0 140490
0.00184728 0.00894591 0 900.088
-0.000404895 0.00611192 0 304.337
-0.00085135 0.00350535 0 3090.75
3.34633e-006 0.00298331 0 91854.9
0.00378526 0.0199019 0 83.1536
-0.000528492 0.024373 0 388.04
-0.000842118 0.0116133 0 433.291
-0.00298148 0.0188909 0 102.766
5.9556e-005 0.0025331 0 131780
-0.000468824 0.00121303 0 140011
9.1581e-005 0.0171817 0 1236.66
-0.00127026 0.0113439 0 544.265
0.00402234 0.0130084 0 27.4338
-0.000363163 0.00496329 0 561.857
-0.00609252 0.0268039 0 68.2886
0.000283831 0.00172705 0 137693
-0.000884834 0.00452052 0 538.643
0.000104251 0.00312707 0 15650.1
0.00028648 0.000908897 0 140354
0.00627587 0.0218045 0 35.0819
0.000138189 0.00301242 0 2076.89
-8.45766e-005 0.00300744 0 66604.3
-0.000367296 0.0115469 0 215.073
4.43738e-005 0.00303088 0 66824.5
0.00481648 0.0179238 0 51.1952
0.00149749 0.00436073 0 2808.7
0.00128386 0.00510424 0 847.936
-0.000137123 0.00279496 0 125255
0.00010392 0.0048879 0 651.371
-0.00091848 7.16259e-005 0 170365
3.54985e-006 0.00298714 0 90451.3
0.000749152 0.00426831 0 703.133
-0.000130195 0.00286367 0 120663
0.00513916 0.0264131 0 146.168
-0.00145383 0.00693267 0 755.498
-0.000170314 0.00271408 0 129207
0.000708754 0.00344963 0 2187.71
0.000173403 0.0026398 0 130868
0.00102924 0.00397184 0 1809.29
7.04719e-005 0.00292897 0 109264
-0.000154347 0.00277069 0 126765
0.000152777 0.00306484 0 4511.68
-0.0057264 0.0155753 0 18.8117
-0.00516063 0.0124211 0 16.4542
-0.000727401 0.00332353 0 2884.61
0.00177507 0.00499121 0 2436.89
-0.00104148 0.00729487 0 190.477
8.03056e-005 0.00285902 0 118707
0.000619507 0.00322392 0 3256.69
0.000491741 0.00344599 0 1348.3
-8.64345e-005 0.00319528 0 14278.6
0.000495863 0.00327729 0 1607.85
0.00629165 0.0165428 0 19.6617
-0.000348261 0.00373379 0 1777.13
0.00695359 0.012557 0 25.1143
-0.00614658 0.0186042 0 29.1379
0.00446424 0.0221677 0 61.3559
-0.000789844 0.00391708 0 741.581
0.000117774 0.00196522 0 136578
-0.000255362 0.0148691 0 879.894
-0.00503812 0.0284552 0 145.905
-0.000107009 0.00253653 0 132054
0.000146628 0.00274959 0 127480
0.00773255 0.0309094 0 89.83
0.000159147 0.00499252 0 607.47
0.000514649 0.00313677 0 2728.98
0.00101358 0.00492618 0 418.776
-0.00010231 0.00251506 0 132310
-0.000149253 0.0149017 0 967.786
-0.0026764 0.0106555 0 1147.62
-0.000401914 0.00497223 0 542.714
-9.9778e-005 0.00250395 0 132505
-0.000167489 0.00307565 0 3876.27
0.00547148 0.0254757 0 65.6936
6.86885e-005 0.00304125 0 48568.7
-0.00443178 0.028435 0 161.598
-9.60567e-005 0.00299261 0 88684.6
0.00605816 0.0243911 0 40.1537
-0.00166852 0.0218177 0 418.722
3.51271e-005 0.00306949 0 49059.9
0.00934401 0.0252145 0 17.9667
0.000689131 0.0161709 0 725.228
-0.00185288 0.0231304 0 366.807
-0.000635695 0.0147353 0 516.532
0.000424951 0.000378919 0 185528
3.11571e-005 0.00341221 0 6288.42
-0.00451594 0.0239154 0 61.1013
4.55634e-005 0.00300278 0 83039
-0.000190882 0.0026229 0 131468
-0.00293428 0.0314144 0 174.495
0.000192455 0.0109275 0 98.6841
-7.99306e-005 0.00301235 0 63633
-0.000103784 0.019352 0 939.172
0.000298059 0.00179298 0 137524
0.000318272 0.00306073 0 2580.03
4.79498e-005 0.00267219 0 128536
0.000550505 0.00439983 0 790.594
-6.64966e-005 0.00296368 0 100471
-0.000353929 0.0037557 0 1745.43
0.00136689 0.00417221 0 2916.91
0.000288631 0.0043673 0 981.649
-0.000116817 0.00316526 0 12222
0.000228982 0.00477361 0 696.115
-0.00010849 0.00292752 0 112748
0.00158742 0.0252298 0 326.281
0.00029744 0.00214644 0 136395
0.00012001 0.0179918 0 1190.83
-2.8464e-005 0.00302556 0 72370.7
-0.000121369 0.00301027 0 2705.46
-0.000613293 0.003423 0 1365.21
0.000416492 0.000739339 0 142631
0.00607599 0.0132862 0 24.1472
-0.000118426 0.00301015 0 2702.82
0.000338231 0.0030745 0 2708.17
-0.000760719 0.00047075 0 151611
-0.000159712 0.00339978 0 5112.91
0.00621185 0.0259584 0 41.8274
-0.000407926 0.00403608 0 1178.98
5.21801e-005 0.0048277 0 694.94
0.00820777 0.0174274 0 24.7967
-0.000651027 0.00328042 0 2885.91
-8.91944e-005 0.00296269 0 103461
-0.000640908 0.0223311 0 502.322
0.00498206 0.0148716 0 26.3543
-0.000133404 0.00280466 0 124568
-0.00284514 0.0101497 0 1267.27
0.00015129 0.00247549 0 133248
0.0036537 0.0164932 0 90.5188
0.000170347 0.00269813 0 129833
-0.00192463 0.00759706 0 1190.07
-0.00146113 0.00452985 0 2589.5
0.00164564 0.0109866 0 700.19
0.00153691 0.0307746 0 200.328
0.000402223 0.00321336 0 1624.34
-0.000561587 0.00118082 0 140427
-0.00107178 0.00734408 0 191.635
-4.6988e-005 0.00292472 0 108460
0.000121356 0.00262665 0 130450
-0.00180667 0.021881 0 387.757
-0.000301986 0.0030856 0 2322.34
-0.000116548 0.00289513 0 117668
0.000683718 0.0116885 0 388.202
-0.000354426 0.00170815 0 137921
0.000168525 0.00302989 0 2200.13
0.0016288 0.00554363 0 1622.28
-0.000454254 0.00780077 0 174.665
9.99188e-005 0.00299126 0 92016
-0.000923631 0.00351832 0 3383.14
-0.000513771 0.00531417 0 429.335
-0.000134682 0.0174176 0 1203.71
0.000245462 0.00302872 0 2171.91
-0.00010594 0.00296983 0 102306
0.000263028 0.00390471 0 1690.27
0.000668464 0.00324245 0 3124.48
-0.00016736 0.00267447 0 129976
9.47415e-005 0.00371123 0 2752.06
0.00421743 0.0282356 0 173.84
0.000517536 0.00330043 0 1562.04
7.86006e-005 0.00301308 0 64601.1
-0.00150253 0.0233222 0 396.523
3.50244e-005 0.00343033 0 6218.32
0.00521285 0.0268086 0 141.848
-2.25255e-005 0.00298419 0 91529.2
0.000210866 0.0048041 0 673.391
-0.00060708 0.0165096 0 891.969
0.00212885 0.0061951 0 1955.59
-2.66592e-005 0.00312601 0 31859.4
-0.00828018 0.0153779 0 25.2221
-0.00170476 0.0244237 0 334.733
-2.90915e-005 0.00298341 0 91839.3
-0.00185381 0.0061466 0 1712.15
3.45393e-006 0.00277635 0 123637
0.00147734 0.00677235 0 804.078
0.00789347 0.0314466 0 86.2514
-0.00613399 0.0273266 0 76.2003
6.50073e-005 0.00218408 0 135424
-0.00147779 0.0231807 0 403.843
-0.000188401 0.00264524 0 131158
-0.00075172 0.0114273 0 401.408
0.00122718 0.0181316 0 419.098
-0.000212778 0.0261997 0 308.413
-0.000849183 0.00348376 0 3203.08
0.00262104 0.0134155 0 389.315
1.27232e-005 0.00293823 0 104572
0.000154311 0.000143575 0 261033
0.00227939 0.00864795 0 1227.06
-0.000341661 0.00336084 0 2291.19
-0.00187213 0.00737965 0 1184.34
-0.000325102 0.00324186 0 2194.76
0.00106283 0.00405371 0 1871.67
0.00306202 0.0160229 0 145.572
-0.00125502 0.0209796 0 511.068
-0.000371653 0.00205944 0 136990
-6.26965e-005 0.00321945 0 14541.1
0.00162374 0.026075 0 291.056
2.10167e-006 0.00278249 0 123203
-0.0055484 0.0286456 0 132.903
0.00015094 0.0013019 0 138483
0.000698722 0.0033001 0 3335.12
-0.000209116 0.00313022 0 3554.72
0.000178301 0.00263421 0 131106
-0.000170601 0.00241911 0 134031
6.51233e-005 0.00278293 0 123876
0.000796117 0.00012178 0 179223
-0.00585119 0.020535 0 35.0588
-0.000609924 0.00122633 0 140251
-0.000102624 0.00304973 0 18385
0.00514232 0.0257801 0 118.658
-0.00828702 0.0225688 0 19.3525
-0.000614799 0.00344241 0 1276.06
-0.00151189 0.0188183 0 314.276
-3.25492e-005 0.0029848 0 91269.4
0.00054607 0.027935 0 245.913
-0.000162612 0.00307065 0 4017.29
0.00170386 0.00536783 0 1955.82
0.000122657 0.00246052 0 133259
0.000114118 0.00372299 0 2631.51
0.000279019 0.00175174 0 137616
-0.00259204 0.0130168 0 477.708
0.0051502 0.0128645 0 19.9253
-9.8562e-005 0.00342344 0 5460.14
-0.000685127 0.00529569 0 428.004
-0.000466511 0.00313725 0 2719.76
0.000190709 0.00268308 0 130368
0.000395417 0.00366064 0 1772.87
0.000169582 0.00301879 0 1961.09
-0.00265958 0.00992127 0 1185.05
-0.00519759 0.0137459 0 17.4486
-0.000114222 0.00289247 0 117828
2.13384e-005 0.00287136 0 115753
0.000112396 0.0030073 0 2579.06
-0.000364131 0.0125976 0 332.632
0.000638801 0.0281464 0 246.463
-7.63196e-005 0.00301224 0 65834.7
0.00647815 0.0133628 0 25.8915
0.000321473 0.00338261 0 2584.49
-0.00275906 0.0101546 0 1202.95
-0.00198739 0.00761012 0 1246.12
-0.00766429 0.0300439 0 76.3551
-0.000176722 0.00312882 0 5387.73
-0.00800327 0.0218525 0 19.0927
0.00020237 0.00307009 0 2308.5
-0.000414328 0.00346374 0 1725.4
-0.000653425 0.00100717 0 142013
0.000805931 0.0226935 0 502.859
5.17832e-005 0.00318251 0 18677.6
0.000302933 0.0020752 0 136650
4.75096e-005 0.00289494 0 113360
-9.22855e-005 0.00259343 0 130772
-0.00177752 0.00488612 0 2162.25