# rho  FACE_DATA 23640
#  x  y  z  rho
-0.00296834 0.0159323 0 0.000393525
0.000794309 0.0100339 0 0.000795431
0.00690979 0.0130745 0 2.50912e-005
0.000158008 0.0018211 0 0.116142
-0.000662165 0.0113619 0 0.00104011
-0.00203768 0.00587959 0 0.00281304
-0.000220137 0.00748479 0 0.000686704
0.00214531 0.0125841 0 0.00170919
-0.00164167 0.00702341 0 0.00248118
0.00020958 0.00306993 0 0.00396384
4.59799e-005 0.00273939 0 0.112198
0.00075606 0.00524313 0 0.00123207
0.00107075 0.0257944 0 0.000919783
-0.000458708 0.0115994 0 0.000889073
-0.000900467 0.00350322 0 0.00414884
-0.00222355 0.00655891 0 0.00234062
0.00442703 0.0182294 0 0.000198794
7.09705e-005 0.00299924 0 0.0812942
-2.45517e-005 0.00292714 0 0.0990975
-0.000543852 0.00394831 0 0.00267458
7.98376e-005 0.00283498 0 0.108914
0.00510868 0.0124654 0 2.28235e-005
7.37866e-005 0.00284217 0 0.108313
-0.000122136 0.00287943 0 0.1074
0.00117211 0.0120328 0 0.0014218
0.000340217 0.00636002 0 0.000955002
-1.62375e-005 0.00331413 0 0.0153197
0.000288499 0.00391811 0 0.00354723
0.00604323 0.0215883 0 0.000129596
0.0015748 0.0199438 0 0.00125262
0.000642306 0.0286533 0 0.000769822
-0.000788091 0.000235815 0 0.134969
8.45076e-005 0.00283429 0 0.109059
-0.000766033 0.00453527 0 0.00161674
-0.000556446 0.00360452 0 0.00273802
-0.000694613 0.00330261 0 0.00368056
0.00425461 0.0181246 0 0.000211971
0.00563158 0.0299784 0 0.000451321
0.00374311 0.0125452 0 5.54684e-005
-0.000168184 0.00269727 0 0.114759
0.00100487 0.00483203 0 0.00126767
-0.00170325 0.00704586 0 0.00257336
-0.00047461 0.0123053 0 0.00104202
-0.00401905 0.0129379 0 5.52659e-005
0.000128446 0.00148328 0 0.114647
0.000108141 0.00315803 0 0.0192814
0.00299545 0.0176096 0 0.000386538
0.00122698 0.00708374 0 0.000901684
0.000214903 0.00307399 0 0.00396823
0.00225142 0.0126586 0 0.00167062
0.000204708 0.00068009 0 0.119671
4.25297e-005 0.00299727 0 0.0834702
-0.000477288 0.00315875 0 0.00347408
-0.00378992 0.02149 0 0.000253843
0.000139812 0.00181138 0 0.116049
0.000208917 0.00302796 0 0.00236728
-0.00160791 0.0049468 0 0.0040142
0.000941143 0.00995448 0 0.00113982
8.9442e-006 0.010956 0 0.000403999
-0.000434056 0.00133506 0 0.115228
0.000566946 0.0289715 0 0.00074633
-7.40414e-005 0.003214 0 0.020178
-0.000145493 0.00239699 0 0.116996
3.42483e-005 0.00298986 0 0.0862647
0.000575544 0.00987125 0 0.000465132
3.71363e-005 0.00299095 0 0.0858114
-0.00247102 0.00772987 0 0.0020508
0.00096928 0.0118325 0 0.00130349
-9.22697e-005 0.00299969 0 0.0735224
-0.000570617 0.0122505 0 0.00109238
-0.000211411 0.00254812 0 0.116739
-0.000765289 0.00457715 0 0.00158726
8.13068e-005 0.00294139 0 0.0998674
-0.00437678 0.0203082 0 0.000204874
0.00226862 0.00661101 0 0.00259287
-0.000832194 0.000220534 0 0.132551
-0.000164868 0.00301134 0 0.00255427
0.0012393 0.0259768 0 0.000887549
-2.48279e-005 0.00292318 0 0.099764
0.000116572 0.00245177 0 0.116604
9.77655e-005 0.00313112 0 0.0224945
0.000279024 0.00328636 0 0.00579696
-5.75605e-005 0.0116355 0 0.000473183
-7.47936e-005 0.0117342 0 0.000469355
0.000518168 0.00993111 0 0.000445345
-0.000154608 0.0030256 0 0.00324163
4.53443e-005 0.00299839 0 0.0831141
-0.000161071 0.0027724 0 0.112833
0.000104836 0.00293916 0 0.101095
-0.00100104 0.00361077 0 0.00396879
-0.000510005 0.00921774 0 0.00049572
0.00100295 0.0100141 0 0.00124062
-0.000646084 0.00336418 0 0.00395304
6.96906e-005 0.00293287 0 0.100101
-1.67264e-005 0.00300289 0 0.082153
0.000173509 0.0227352 0 0.00134236
3.17037e-005 0.00298455 0 0.0877678
0.000312244 0.00306502 0 0.00278412
-0.00212604 0.00906512 0 0.00233153
-0.00049218 0.00322389 0 0.003882
0.000341345 0.00323843 0 0.00388476
-0.00385942 0.0216496 0 0.000256678
-0.000125834 0.0028813 0 0.107067
0.00524627 0.0255212 0 0.000261323
0.000713781 0.0036837 0 0.00210622
0.00601727 0.0299149 0 0.000421941
-0.000344095 0.00203632 0 0.117538
-0.0047341 0.0239481 0 0.000202782
-0.000460773 0.00539436 0 0.00127315
-0.00196148 0.00905338 0 0.002226
0.00143807 0.0303782 0 0.000676414
7.94637e-005 0.00293894 0 0.100076
0.00013473 0.00481908 0 0.00184084
0.00105264 0.00484794 0 0.00126124
0.000112877 0.0030262 0 0.0112366
-0.00781161 0.0282885 0 0.000135962
-0.000846622 0.00344471 0 0.00411641
-0.00206201 0.0306837 0 0.000629334
-0.00313594 0.0160362 0 0.000348102
0.00144289 0.0198776 0 0.00132743
-0.000135136 0.00286502 0 0.107735
-0.000205101 0.000950881 0 0.113789
0.000372212 0.00308853 0 0.00285174
0.000370404 0.000795868 0 0.114858
0.000201681 0.00347815 0 0.00703736
-0.000147808 0.00278598 0 0.112008
0.000218103 0.000637733 0 0.125134
0.000195722 0.00313377 0 0.00687794
-0.00203813 0.00594128 0 0.00282066
0.00112067 0.00510142 0 0.00117013
5.16573e-005 0.00373385 0 0.00523004
0.000381501 0.00336875 0 0.00395051
0.000860715 0.0258401 0 0.00096103
-0.000116556 0.00339842 0 0.00975114
-0.00513668 0.0257477 0 0.000303045
-0.000162894 0.00277847 0 0.112679
8.27341e-005 0.00277738 0 0.111416
0.0010674 0.0118759 0 0.00137437
-4.09992e-005 0.00275121 0 0.111792
3.29665e-005 0.00297369 0 0.090699
-0.00204547 0.0090065 0 0.00233058
-0.00160474 0.0048986 0 0.00404973
8.25825e-005 0.00294819 0 0.0987747
4.00473e-005 0.00273627 0 0.112245
-9.41642e-005 0.00295571 0 0.098018
0.00150619 0.00997327 0 0.0016838
8.22134e-005 0.00268838 0 0.113822
-0.000160791 0.00267895 0 0.11489
-0.000596112 0.00909085 0 0.000509089
-9.31423e-005 0.00299701 0 0.078509
0.00235681 0.0126226 0 0.00164399
0.00203765 0.00557212 0 0.00286035
-0.000165794 0.0115731 0 0.00051422
6.0159e-005 0.0021996 0 0.116889
0.000371981 0.00362464 0 0.00408113
-0.00733688 0.029685 0 0.000278557
-0.000180414 0.00743151 0 0.000690284
-0.000357207 0.004885 0 0.00167364
0.00253943 0.00813968 0 0.00209174
-1.29377e-005 0.00332967 0 0.0150641
-0.0010235 0.00361199 0 0.00392073
-0.000285329 0.0030748 0 0.00324516
-0.000681311 0.00329291 0 0.00361123
-0.00260727 0.00895038 0 0.00159546
0.00788717 0.0276195 0 0.00011207
0.0089704 0.0287411 0 0.000100687
-0.000270534 0.00232157 0 0.117777
-0.00014416 0.00312601 0 0.0134002
-0.000337662 0.00201762 0 0.117486
0.0003962 0.00337513 0 0.00387251
0.00121317 0.00701782 0 0.000898851
0.000116206 0.00302915 0 0.0102611
0.00225197 0.00666935 0 0.00251835
-0.000507665 0.00548922 0 0.00123066
-0.000231863 0.00226746 0 0.117538
0.000244361 0.00226851 0 0.117626
0.00111028 0.00505498 0 0.00117213
0.000121223 0.00304184 0 0.0115185
0.00012049 0.00243938 0 0.116711
-0.0013386 0.0186068 0 0.00102595
0.000102064 0.00149733 0 0.114681
0.000147362 0.00301363 0 0.00239584
0.00106981 0.0119939 0 0.00136979
-0.000365953 0.00411169 0 0.00283143
0.00557444 0.020358 0 0.000130153
4.86089e-005 0.00307386 0 0.0482565
-0.000177413 0.0035472 0 0.00661662
-0.000632994 0.00339325 0 0.00350932
0.000487307 0.00130985 0 0.115438
-0.000349424 0.00402777 0 0.00309063
-0.00177251 0.00629586 0 0.00331269
-7.92525e-005 0.00273084 0 0.112787
0.000241714 0.00100077 0 0.113756
-0.000154516 0.0114773 0 0.00050233
0.00502442 0.0222916 0 0.000179829
-0.000166546 0.00272686 0 0.114139
0.000707598 0.00365891 0 0.00215656
-0.00157418 0.0046046 0 0.00369441
0.000122725 0.00301099 0 0.00287637
0.000172305 0.00324558 0 0.0105678
7.46185e-006 0.00286175 0 0.105878
0.00533293 0.0140838 0 4.0197e-005
0.00520504 0.0284215 0 0.000477365
-0.00170266 0.00713636 0 0.00258848
4.38765e-005 0.00290514 0 0.102266
0.00035679 0.0099507 0 0.0004326
0.000120447 0.00300871 0 0.00307191
7.85992e-005 0.00284146 0 0.10854
0.000146556 0.00306157 0 0.00798909
-0.000265484 0.00230758 0 0.117773
-0.000558184 0.0114136 0 0.000929546
0.000873988 0.011905 0 0.00125015
0.00195145 0.0157285 0 0.000826545
0.000415959 0.00988952 0 0.000432886
0.00204861 0.00551694 0 0.00282767
0.00159497 0.00893937 0 0.00187137
0.00125366 0.00690066 0 0.00104888
-0.000537482 0.00397822 0 0.00260171
-0.00245206 0.00890865 0 0.00202868
-0.00591638 0.015069 0 4.4052e-005
0.00182541 0.0157696 0 0.000881072
-6.39179e-005 0.00274368 0 0.112164
1.24162e-005 0.00286011 0 0.106091
0.000785526 0.00520879 0 0.00125356
0.000119132 0.00288179 0 0.10722
0.000107617 0.00492998 0 0.0017518
-0.000398708 0.00617064 0 0.000969068
-0.00031795 0.000861625 0 0.114304
-0.0054742 0.0145195 0 4.53168e-005
-0.00050603 0.0093045 0 0.000496059
-0.00281713 0.0160093 0 0.000431818
-0.00521587 0.0225645 0 0.000166855
0.000631138 0.00410172 0 0.00216811
0.00077675 0.0118594 0 0.00117641
-0.000339893 0.00491785 0 0.0016567
0.000278502 0.0033019 0 0.00570397
-0.000206291 0.0025551 0 0.116584
0.0015782 0.00885327 0 0.00187992
-0.000601058 0.00917374 0 0.000511491
0.000107852 0.00308374 0 0.0212175
0.000329157 0.00324408 0 0.00422116
-0.000107456 0.0030138 0 0.0102288
0.000995869 0.00478803 0 0.00127663
-0.00176263 0.00715431 0 0.00264935
0.000133123 0.00190024 0 0.116382
0.00428452 0.0222831 0 0.000224627
0.00249322 0.0134845 0 0.000959039
0.000209201 0.00303326 0 0.00257053
1.124e-005 0.00241342 0 0.116504
-0.000138897 0.00282521 0 0.110856
-0.000422518 0.00130967 0 0.115138
0.000897928 0.00602889 0 0.000957451
0.00296246 0.0177704 0 0.00038543
-0.000240922 0.0022558 0 0.11756
0.000161456 0.0106342 0 0.00040495
-0.000169117 0.00269067 0 0.114758
-0.00600599 0.0132277 0 2.42079e-005
-0.00498542 0.0226529 0 0.000181335
0.00035646 0.00189436 0 0.117062
0.000360867 0.00193124 0 0.117221
0.000188008 0.00159518 0 0.115285
0.00315697 0.0294361 0 0.000671165
0.000380728 0.00331446 0 0.00376202
-0.000407732 0.00541329 0 0.00130194
0.00599218 0.0187772 0 9.95359e-005
-0.000475668 0.0124289 0 0.00104101
9.243e-005 0.00339173 0 0.0109187
-0.0022067 0.00902531 0 0.00235076
0.000138287 0.010546 0 0.000406522
-4.59787e-005 0.00300592 0 0.0797606
0.000475334 0.00325723 0 0.00341445
0.0081269 0.0233608 0 8.10934e-005
-0.000136448 0.00286953 0 0.108093
0.000465099 0.00132931 0 0.115483
0.000196949 0.00312437 0 0.00698697
-0.000725979 0.00459524 0 0.00170332
0.00566025 0.0201173 0 0.000124592
-0.000237093 0.000937504 0 0.113907
-7.15727e-006 0.00298867 0 0.0865393
-0.000556128 0.00552312 0 0.00120657
-0.000151452 0.00278159 0 0.112456
0.00604583 0.0167381 0 7.60128e-005
5.44524e-005 0.00307484 0 0.04669
3.5211e-005 0.00270778 0 0.112997
-0.00210731 0.0068781 0 0.0029529
8.91266e-005 0.00319599 0 0.0201446
-0.00242079 0.00974735 0 0.00199527
0.00135885 0.00413507 0 0.00366544
-0.00108228 0.00797081 0 0.000694494
3.29303e-005 0.00271504 0 0.112738
-0.000508078 0.0208168 0 0.00167091
-0.00472826 0.0198065 0 0.000174271
0.00152826 0.0090827 0 0.00176388
-0.00252462 0.00897287 0 0.00184636
-4.09377e-005 0.0027578 0 0.111564
-0.00186927 0.0116808 0 0.00188801
0.00108447 0.00518193 0 0.00114911
-0.00419392 0.0202211 0 0.00022019
0.000296615 0.00594885 0 0.0010857
0.00365557 0.0156923 0 0.000256475
-0.000138643 0.00311989 0 0.0140566
3.44704e-005 0.00298593 0 0.087379
-0.000249911 0.000891772 0 0.113882
0.00110337 0.0099601 0 0.00138579
8.04689e-005 0.00279643 0 0.110564
0.00779157 0.0249956 0 9.55109e-005
0.000351464 0.00337107 0 0.00445858
-0.00012879 0.00323538 0 0.0141251
0.000155895 0.00168996 0 0.115599
8.56943e-005 0.00294739 0 0.0991395
0.0053023 0.0238774 0 0.00017161
0.000238423 0.00318026 0 0.00611252
0.000230406 0.00226533 0 0.117555
-5.15866e-005 0.00292996 0 0.0994036
2.57476e-005 0.00286927 0 0.105456
0.000105066 0.00340141 0 0.0102316
-0.0006343 0.00341198 0 0.00331799
-0.00683177 0.0130924 0 2.31275e-005
-1.54609e-005 0.00299907 0 0.0834114
-0.00215958 0.00656839 0 0.00260407
0.00301179 0.0141363 0 0.000409335
-0.000723924 0.00463742 0 0.00165759
-0.000555458 0.00358088 0 0.00282634
0.000287933 0.00394954 0 0.00342096
-0.00525881 0.0259389 0 0.000303594
-0.000235386 0.00314485 0 0.00541284
-0.000664883 0.00104525 0 0.11612
0.00182857 0.0107598 0 0.00187145
0.00289308 0.0133881 0 0.000532023
0.000556851 0.000459359 0 0.126186
-6.31462e-005 0.00306344 0 0.0469479
0.00204396 0.0126442 0 0.00168689
-0.000369072 0.00408052 0 0.00286233
-0.00018247 0.00378321 0 0.00462776
0.000579156 0.0162179 0 0.00211755
0.00117061 0.0100074 0 0.00142828
0.000129771 0.00301154 0 0.00267844
0.00050022 0.00329429 0 0.00320067
-0.00194273 0.0117557 0 0.00191847
0.000295066 0.00600891 0 0.00108551
-0.000154748 0.0030213 0 0.00284544
8.51353e-005 0.00297491 0 0.093244
0.000370749 0.00364798 0 0.00405236
0.00032381 0.000892659 0 0.114164
-0.000114683 0.00273658 0 0.113126
7.10543e-005 0.0030026 0 0.0783464
-9.6647e-005 0.00324264 0 0.0164013
0.000733896 0.00537107 0 0.00122775
0.000155197 0.00494735 0 0.00165781
0.000610019 0.00412319 0 0.00222165
0.000353717 0.00194986 0 0.117283
-0.000244432 0.00314026 0 0.00492165
-0.00502653 0.0232658 0 0.000181488
-0.00178789 0.0309983 0 0.000624499
-0.000579723 0.00361754 0 0.00273098
0.00813841 0.0273314 0 0.000101014
-0.002496 0.0131044 0 0.00104702
-0.00431729 0.0290645 0 0.000557878
-0.000157683 0.00240005 0 0.117056
-6.09633e-005 0.00273787 0 0.112439
-0.000172602 0.00356894 0 0.00636866
5.95493e-005 0.00280503 0 0.109888
3.59382e-005 0.00297531 0 0.090329
0.0038221 0.0156522 0 0.000229669
0.00151814 0.00899556 0 0.00178686
0.00891208 0.0209237 0 5.36758e-005
0.00932881 0.0247628 0 7.03081e-005
0.000401147 0.00319889 0 0.00344621
-1.37134e-005 0.00292236 0 0.0997169
-0.00149883 0.0199029 0 0.00115737
-0.000151382 0.00307642 0 0.00876875
-9.99299e-005 0.00297786 0 0.0922053
0.00528439 0.0241343 0 0.000173103
2.61097e-005 0.00286432 0 0.105852
0.000206875 0.00349712 0 0.00680991
-0.00509797 0.0234717 0 0.000183357
-0.000597722 0.000953511 0 0.116099
-0.00793898 0.0155863 0 3.77236e-005
0.00183935 0.0106624 0 0.0018648
7.52069e-005 0.00339368 0 0.0110854
-7.77056e-005 0.00294222 0 0.0990715
-9.8985e-005 0.00297992 0 0.0914897
0.00161823 0.00911669 0 0.00186732
8.21842e-005 0.00297527 0 0.0928631
-0.00188133 0.00900925 0 0.00217253
-0.00617827 0.0275965 0 0.00029463
-0.000490092 0.00321051 0 0.00395266
0.00945115 0.0288751 0 8.64249e-005
-0.00016434 0.00272067 0 0.114339
-0.00797941 0.0222445 0 7.12285e-005
-4.01564e-005 0.00301654 0 0.0760432
-0.00180498 0.00506765 0 0.00321311
-0.000161305 0.00301261 0 0.00261827
-0.000482063 0.00316965 0 0.00362896
-0.000942791 0.00378901 0 0.00403785
-0.000134053 0.00282435 0 0.110722
0.000242746 0.000963685 0 0.113754
0.00525461 0.0274919 0 0.000441015
0.00306352 0.0179257 0 0.000371652
-0.000120066 0.00324295 0 0.0144091
-0.00319507 0.0125029 0 0.000213676
-0.000290892 0.00233844 0 0.117813
0.00159844 0.00482417 0 0.00384149
0.00787978 0.0236538 0 8.88131e-005
0.00145057 0.0259009 0 0.00093162
-0.000336257 0.00619409 0 0.000958941
-0.000333917 0.00172186 0 0.116264
0.00577509 0.0216659 0 0.000139829
0.000667048 0.00332313 0 0.00425991
0.00248969 0.00807562 0 0.00221687
-0.00160944 0.00467215 0 0.00372531
1.98969e-005 0.00242157 0 0.11651
0.000286635 0.0021356 0 0.117568
-0.00161117 0.00618199 0 0.00276969
7.54635e-005 0.00268391 0 0.113871
0.00101663 0.00497361 0 0.00122838
9.78423e-005 0.00320089 0 0.0189722
-0.000282098 0.0245537 0 0.00106297
0.00160534 0.0053807 0 0.00351796
0.000645555 0.00426047 0 0.0020723
0.000344665 0.00191282 0 0.117136
-4.37224e-005 0.0030135 0 0.0768275
0.000410526 0.00592784 0 0.00105681
-0.00161438 0.00462874 0 0.00356553
0.000197339 0.00307463 0 0.00449662
-0.00787948 0.0250527 0 9.3034e-005
0.000365567 0.000836364 0 0.114519
0.000428529 0.0031113 0 0.00291088
6.29689e-005 0.00280138 0 0.110202
-0.00260928 0.0115127 0 0.00165905
0.00511854 0.0182191 0 0.000138338
-0.000191506 0.0013612 0 0.114349
0.000255298 0.00234631 0 0.117599
7.80872e-005 0.00285378 0 0.107915
-6.93966e-006 0.00361778 0 0.00693322
-0.000112834 0.00273034 0 0.113304
-0.000151306 0.00308356 0 0.00925406
0.000794921 0.00339323 0 0.00379657
0.000120559 0.00308016 0 0.0171227
-0.00060963 0.000994212 0 0.116032
-0.000187211 0.00375918 0 0.00473272
-0.000179749 0.00239602 0 0.117173
0.000583853 0.00320912 0 0.00345719
-0.000220391 0.00307379 0 0.00399683
-3.20721e-005 0.00313154 0 0.0367336
-0.00240166 0.00829286 0 0.0022379
-0.000107553 0.0032363 0 0.0157469
0.000485775 0.00324734 0 0.00375032
-1.6528e-005 0.00283252 0 0.107825
0.000388916 0.00319175 0 0.0034551
-0.000191501 0.000101552 0 0.217107
-0.00244196 0.00780076 0 0.0021192
-0.000237142 0.00223825 0 0.117565
-0.00179252 0.00511195 0 0.00336005
7.86645e-005 0.00300926 0 0.0708638
-0.00578012 0.0268724 0 0.000314856
-0.00101007 0.00801211 0 0.000646916
0.000363332 0.00337974 0 0.0044359
0.000391279 0.00186159 0 0.117054
0.000433244 0.00317308 0 0.00395445
0.00161612 0.00543442 0 0.00353844
-0.00207993 0.00693738 0 0.00291694
0.000483914 0.00474879 0 0.00179104
0.000802557 6.40842e-005 0 0.152944
0.00066144 0.00330597 0 0.00411578
0.00141767 0.0197289 0 0.00133088
-0.000651775 0.00329699 0 0.00401899
0.000282152 0.00304241 0 0.00239901
-0.000357054 0.00319624 0 0.00351397
-0.00178284 0.00623412 0 0.0033263
3.8992e-005 0.00380209 0 0.00497962
-0.00100109 0.0210667 0 0.00146054
0.000165033 0.00158259 0 0.115184
0.00864187 0.0174253 0 4.99919e-005
0.00315453 0.0128329 0 0.000300047
-8.64597e-005 0.00318341 0 0.0209848
-0.000259494 0.0126492 0 0.00097062
0.000466396 0.000355167 0 0.150572
0.000246728 0.00318708 0 0.00592261
-0.000724122 0.000493878 0 0.121963
-0.00236534 0.0089472 0 0.0022151
-0.00585899 0.0184819 0 9.98209e-005
-0.000109395 0.00425783 0 0.00283985
-0.000225082 0.00307869 0 0.00401464
0.00116126 0.00383867 0 0.00400394
0.000146244 0.00305529 0 0.00728974
0.000106639 0.00285591 0 0.108588
0.00516349 0.0142403 0 4.60971e-005
-0.000547118 0.0281975 0 0.000803328
-0.00314055 0.0188201 0 0.00031794
6.39205e-005 0.0034062 0 0.010494
0.000746714 0.00049437 0 0.121797
0.00226648 0.0258744 0 0.000838955
-0.000137355 0.00283875 0 0.109836
0.00173233 0.0108179 0 0.00179176
-0.000334456 0.00625618 0 0.000960077
-0.000652252 0.00338145 0 0.0038546
-6.89277e-005 0.00306466 0 0.0433521
0.000126795 0.00304178 0 0.00893305
0.00478399 0.0277755 0 0.000520709
0.000516287 0.0229306 0 0.00131682
5.89116e-005 0.00254342 0 0.115689
-0.00795861 0.0246948 0 9.21182e-005
0.00133689 0.00999394 0 0.00158313
-0.000118825 0.0220921 0 0.00150764
6.34909e-005 0.0107046 0 0.000403032
-0.000946741 0.00381309 0 0.00391076
0.00581241 0.0241952 0 0.000151819
-0.00487736 0.01991 0 0.000168641
0.00170829 0.0256098 0 0.000936318
9.98067e-005 0.00316224 0 0.0205148
0.00308063 0.0142797 0 0.000397817
-0.000279242 0.00307977 0 0.00343279
-0.000183934 0.00303725 0 0.00322306
7.83288e-005 0.00286324 0 0.107032
-0.000440884 0.00514493 0 0.00140362
0.000455558 0.00477565 0 0.00174638
0.00520625 0.0221693 0 0.000172037
-0.00179507 0.00722781 0 0.0026814
5.54873e-005 0.00266826 0 0.113998
-0.00157971 0.00456195 0 0.00356991
4.18607e-005 0.00302762 0 0.0709974
-0.000194972 5.19224e-005 0 0.218876
-0.000846289 0.00342394 0 0.00400865
-0.00105965 0.00823661 0 0.000733785
0.000163413 0.00479131 0 0.00186069
-8.2874e-005 0.00288534 0 0.10567
0.00157378 0.00552232 0 0.0032482
-7.66839e-005 0.00293931 0 0.0995423
0.000101978 0.0109948 0 0.000395527
-0.000363872 0.00601296 0 0.00101957
0.000117978 0.00287815 0 0.107618
0.000219153 0.00318835 0 0.006996
-0.00163196 0.00449872 0 0.00332064
-0.000221409 0.00303399 0 0.00269523
-0.000370966 0.0244074 0 0.00109128
-0.000466554 0.00315829 0 0.00355283
0.000396164 0.00331941 0 0.00360518
-0.00482666 0.0238063 0 0.000200538
0.00133411 0.00522841 0 0.00236337
-0.00267568 0.00982141 0 0.00169555
-0.000480207 0.0219659 0 0.00147971
0.00177473 0.0106071 0 0.00184336
0.000428512 0.00597987 0 0.00105684
0.00330832 0.0202369 0 0.000315507
-0.00036699 0.012473 0 0.000983856
-0.000901486 0.00347959 0 0.00395485
-9.70158e-005 0.00294708 0 0.0994828
-0.00110466 0.0144253 0 0.00147084
-0.00107199 0.0143087 0 0.0014676
0.000113095 0.0030798 0 0.0197182
0.000776547 0.0117402 0 0.00117306
-0.000196596 0.00302496 0 0.00254456
-0.00581483 0.0148124 0 4.41928e-005
0.000125326 0.00308478 0 0.0162849
-0.00172589 0.0230235 0 0.00107694
-0.00123798 0.0114294 0 0.00140763
-0.000106038 0.00301072 0 0.0101403
7.68012e-005 0.00277918 0 0.111256
-0.000218387 0.00226751 0 0.117528
0.00288382 0.0120736 0 0.00103642
0.000136685 0.00272066 0 0.113917
0.00126396 0.00994364 0 0.00153917
0.000169734 0.00323168 0 0.0108183
3.33298e-005 0.00296283 0 0.0932727
7.38909e-005 0.00285244 0 0.107867
0.00226662 0.00684142 0 0.00249042
-4.80444e-005 0.00288948 0 0.104124
0.000117291 0.00304527 0 0.0144338
0.00044057 0.00316393 0 0.00386549
0.00025781 0.000139806 0 0.204028
-0.000553437 0.0115383 0 0.000984309
0.00174054 0.0109254 0 0.00181029
-0.00657824 0.0304887 0 0.000366483
-0.00287878 0.0309438 0 0.000596771
-1.74214e-005 0.00292383 0 0.0995368
0.000417861 0.00311152 0 0.00294878
-0.000158816 0.00302837 0 0.00336951
0.000540608 0.00339996 0 0.00264939
0.00322243 0.0179545 0 0.000330621
-0.000159371 0.0013528 0 0.114243
0.000126077 0.0159893 0 0.00247321
-0.00432652 0.0294311 0 0.000560946
0.0015673 0.00546801 0 0.0033307
-5.0904e-005 0.00292621 0 0.0999942
-0.000106737 0.00293051 0 0.101995
0.00275932 0.0110589 0 0.00155593
0.000556951 0.00340784 0 0.0026635
0.000399007 0.0063813 0 0.000915766
-4.55764e-005 0.00288684 0 0.104297
5.78688e-005 0.00240298 0 0.116578
-0.00135948 0.0128543 0 0.00155633
0.00105587 0.00489705 0 0.0012389
-0.00180772 0.00736401 0 0.00261419
8.62884e-005 0.0107917 0 0.000402819
-1.73838e-005 0.00299616 0 0.0844655
-0.000559779 0.00402893 0 0.0024609
-0.000129894 0.00339006 0 0.00978646
-0.00108645 0.0209701 0 0.00147784
-0.000355289 0.00318516 0 0.00356436
6.75287e-005 0.00268766 0 0.113671
-1.6399e-005 0.00282695 0 0.108207
0.000375645 0.00184967 0 0.116957
0.000226595 0.00318087 0 0.00654704
-0.00157723 0.0197887 0 0.00110362
0.000153682 0.00302297 0 0.0026084
-0.000983791 0.00376429 0 0.00459797
0.00320404 0.0139037 0 0.000325016
-0.000399729 0.0051532 0 0.00148146
-8.43671e-005 0.0028893 0 0.105432
0.00153091 0.0204307 0 0.00127741
0.0023948 0.0125217 0 0.00163297
0.000662239 0.00525468 0 0.00128996
-0.00103759 0.0179087 0 0.00138456
-0.00194218 0.00558429 0 0.00318218
-0.000960129 0.00376594 0 0.00443416
-0.000309837 0.00306474 0 0.00282785
0.00162461 0.00920594 0 0.00189438
0.00346181 0.0203111 0 0.000294568
0.000412094 0.000782235 0 0.115082
4.10836e-005 0.00290739 0 0.102047
0.00107752 0.00513333 0 0.00116917
-0.00139776 0.00696247 0 0.00148079
5.83714e-005 0.0023895 0 0.116653
0.000501828 0.0119171 0 0.0010106
-2.97555e-005 0.00300349 0 0.0816301
0.00113092 0.00612109 0 0.000901895
3.11664e-005 0.00285722 0 0.106446
-0.000756348 0.0223669 0 0.00131341
0.000606022 0.00322532 0 0.00348102
0.00858419 0.0213223 0 5.76909e-005
0.00228739 0.00873166 0 0.0023408
-0.00330691 0.0124678 0 0.000140162
-0.00135503 0.018735 0 0.00103003
-0.00782909 0.0173425 0 4.42383e-005
0.000179373 0.00168518 0 0.115614
0.000181353 0.0228576 0 0.00134341
0.00116853 0.00608209 0 0.000928333
0.00534216 0.0272787 0 0.000440926
0.000808836 0.00340365 0 0.0037956
-0.00176706 0.00728799 0 0.00262486
0.000366125 0.00308127 0 0.00284505
0.000142062 0.00271694 0 0.114025
0.000456136 0.0264018 0 0.000926886
0.000149779 0.00301624 0 0.00238608
8.09965e-005 0.015903 0 0.00245715
3.07264e-005 0.00286231 0 0.106063
-0.000148146 0.00339011 0 0.00924021
-0.0064378 0.0277565 0 0.000300551
0.00072806 0.00532362 0 0.00122779
-0.00065633 0.00335203 0 0.00409723
-0.000360464 0.000878987 0 0.114492
-9.67537e-005 0.00295742 0 0.0978749
-0.000484113 0.00948683 0 0.000491076
-0.000565445 0.00399845 0 0.00250887
0.000588623 0.00111811 0 0.115843
0.000130395 0.00304539 0 0.0090744
0.000107754 0.00285149 0 0.108854
0.00165731 0.0250536 0 0.000982397
0.00285988 0.0119675 0 0.00117584
-9.54028e-005 0.00428588 0 0.00278095
-0.000124414 0.00317156 0 0.0162686
-0.00814733 0.0285856 0 0.000136956
-0.000216377 0.0031251 0 0.00573666
0.00549751 0.012219 0 2.23191e-005
-0.00550796 0.012201 0 1.93062e-005
0.00287309 0.0132504 0 0.000541175
0.000396043 0.00090361 0 0.114561
-9.96587e-005 0.00294535 0 0.0999252
-0.00215947 0.00674928 0 0.00272719
-0.000289559 0.000893856 0 0.114026
0.00184728 0.00894591 0 0.00208655
-0.000404895 0.00611192 0 0.000966133
-0.00085135 0.00350535 0 0.00463682
3.34633e-006 0.00298331 0 0.0879584
0.00378526 0.0199019 0 0.000268129
-0.000528492 0.024373 0 0.00111378
-0.000842118 0.0116133 0 0.00119713
-0.00298148 0.0188909 0 0.000335425
5.9556e-005 0.0025331 0 0.115792
-0.000468824 0.00121303 0 0.115177
9.1581e-005 0.0171817 0 0.00270906
-0.00127026 0.0113439 0 0.00142426
0.00402234 0.0130084 0 5.58903e-005
-0.000363163 0.00496329 0 0.00156772
-0.00609252 0.0268039 0 0.000233928
0.000283831 0.00172705 0 0.116113
-0.000884834 0.00452052 0 0.00150613
0.000104251 0.00312707 0 0.0212574
0.00028648 0.000908897 0 0.113966
0.00627587 0.0218045 0 0.00012308
0.000138189 0.00301242 0 0.00248495
-8.45766e-005 0.00300744 0 0.0685055
-0.000367296 0.0115469 0 0.000703931
4.43738e-005 0.00303088 0 0.0688056
0.00481648 0.0179238 0 0.000159784
0.00149749 0.00436073 0 0.00352188
0.00128386 0.00510424 0 0.00196365
-0.000137123 0.00279496 0 0.111883
0.00010392 0.0048879 0 0.00175215
-0.00091848 7.16259e-005 0 0.137693
3.54985e-006 0.00298714 0 0.0869155
0.000749152 0.00426831 0 0.00185555
-0.000130195 0.00286367 0 0.108384
0.00513916 0.0264131 0 0.000441662
-0.00145383 0.00693267 0 0.00179967
-0.000170314 0.00271408 0 0.114489
0.000708754 0.00344963 0 0.00423904
0.000173403 0.0026398 0 0.115581
0.00102924 0.00397184 0 0.00366283
7.04719e-005 0.00292897 0 0.100745
-0.000154347 0.00277069 0 0.112796
0.000152777 0.00306484 0 0.00754265
-0.0057264 0.0155753 0 5.30884e-005
-0.00516063 0.0124211 0 2.0468e-005
-0.000727401 0.00332353 0 0.0035917
0.00177507 0.00499121 0 0.0033102
-0.00104148 0.00729487 0 0.000671369
8.03056e-005 0.00285902 0 0.10741
0.000619507 0.00322392 0 0.00341492
0.000491741 0.00344599 0 0.003017
-8.64345e-005 0.00319528 0 0.0202342
0.000495863 0.00327729 0 0.00333637
0.00629165 0.0165428 0 5.9305e-005
-0.000348261 0.00373379 0 0.00385975
0.00695359 0.012557 0 2.22572e-005
-0.00614658 0.0186042 0 9.249e-005
0.00446424 0.0221677 0 0.000212576
-0.000789844 0.00391708 0 0.00190892
0.000117774 0.00196522 0 0.116586
-0.000255362 0.0148691 0 0.00202963
-0.00503812 0.0284552 0 0.00049121
-0.000107009 0.00253653 0 0.116047
0.000146628 0.00274959 0 0.113431
0.00773255 0.0309094 0 0.000307083
0.000159147 0.00499252 0 0.00165927
0.000514649 0.00313677 0 0.00274995
0.00101358 0.00492618 0 0.00123254
-0.00010231 0.00251506 0 0.116142
-0.000149253 0.0149017 0 0.00221377
-0.0026764 0.0106555 0 0.00170219
-0.000401914 0.00497223 0 0.00152449
-9.9778e-005 0.00250395 0 0.116243
-0.000167489 0.00307565 0 0.00653831
0.00547148 0.0254757 0 0.000221624
6.86885e-005 0.00304125 0 0.0533397
-0.00443178 0.028435 0 0.000544832
-9.60567e-005 0.00299261 0 0.0844384
0.00605816 0.0243911 0 0.000147428
-0.00166852 0.0218177 0 0.00115527
3.51271e-005 0.00306949 0 0.0542043
0.00934401 0.0252145 0 7.04671e-005
0.000689131 0.0161709 0 0.00178926
-0.00185288 0.0231304 0 0.00104684
-0.000635695 0.0147353 0 0.00137323
0.000424951 0.000378919 0 0.149958
3.11571e-005 0.00341221 0 0.010578
-0.00451594 0.0239154 0 0.000224348
4.55634e-005 0.00300278 0 0.0814322
-0.000190882 0.0026229 0 0.115952
-0.00293428 0.0314144 0 0.000601245
0.000192455 0.0109275 0 0.000400904
-7.99306e-005 0.00301235 0 0.0660812
-0.000103784 0.019352 0 0.00219175
0.000298059 0.00179298 0 0.116426
0.000318272 0.00306073 0 0.00272098
4.79498e-005 0.00267219 0 0.113934
0.000550505 0.00439983 0 0.00204759
-6.64966e-005 0.00296368 0 0.0944124
-0.000353929 0.0037557 0 0.00381445
0.00136689 0.00417221 0 0.00376742
0.000288631 0.0043673 0 0.00242479
-0.000116817 0.00316526 0 0.0175975
0.000228982 0.00477361 0 0.00185103
-0.00010849 0.00292752 0 0.102722
0.00158742 0.0252298 0 0.000977037
0.00029744 0.00214644 0 0.117659
0.00012001 0.0179918 0 0.00263422
-2.8464e-005 0.00302556 0 0.0731845
-0.000121369 0.00301027 0 0.00356951
-0.000613293 0.003423 0 0.00296776
0.000416492 0.000739339 0 0.11554
0.00607599 0.0132862 0 2.85809e-005
-0.000118426 0.00301015 0 0.00367485
0.000338231 0.0030745 0 0.00291107
-0.000760719 0.00047075 0 0.12286
-0.000159712 0.00339978 0 0.00896859
0.00621185 0.0259584 0 0.000156268
-0.000407926 0.00403608 0 0.0028118
5.21801e-005 0.0048277 0 0.00184191
0.00820777 0.0174274 0 5.60846e-005
-0.000651027 0.00328042 0 0.00386071
-8.91944e-005 0.00296269 0 0.0964639
-0.000640908 0.0223311 0 0.00135438
0.00498206 0.0148716 0 7.27247e-005
-0.000133404 0.00280466 0 0.111414
-0.00284514 0.0101497 0 0.00152239
0.00015129 0.00247549 0 0.116726
0.0036537 0.0164932 0 0.000253827
0.000170347 0.00269813 0 0.114953
-0.00192463 0.00759706 0 0.00263328
-0.00146113 0.00452985 0 0.00430229
0.00164564 0.0109866 0 0.00172859
0.00153691 0.0307746 0 0.000680057
0.000402223 0.00321336 0 0.00335899
-0.000561587 0.00118082 0 0.115618
-0.00107178 0.00734408 0 0.000672883
-4.6988e-005 0.00292472 0 0.100091
0.000121356 0.00262665 0 0.115239
-0.00180667 0.021881 0 0.00108123
-0.000301986 0.0030856 0 0.00339128
-0.000116548 0.00289513 0 0.106383
0.000683718 0.0116885 0 0.00111471
-0.000354426 0.00170815 0 0.116271
0.000168525 0.00302989 0 0.00298267
0.0016288 0.00554363 0 0.00333665
-0.000454254 0.00780077 0 0.000625019
9.99188e-005 0.00299126 0 0.0852416
-0.000923631 0.00351832 0 0.00415823
-0.000513771 0.00531417 0 0.00126976
-0.000134682 0.0174176 0 0.00264405
0.000245462 0.00302872 0 0.00231348
-0.00010594 0.00296983 0 0.0936532
0.000263028 0.00390471 0 0.00373961
0.000668464 0.00324245 0 0.00315918
-0.00016736 0.00267447 0 0.115041
9.47415e-005 0.00371123 0 0.00548409
0.00421743 0.0282356 0 0.000580135
0.000517536 0.00330043 0 0.00327005
7.86006e-005 0.00301308 0 0.0669907
-0.00150253 0.0233222 0 0.00111936
3.50244e-005 0.00343033 0 0.0105463
0.00521285 0.0268086 0 0.000441884
-2.25255e-005 0.00298419 0 0.0877472
0.000210866 0.0048041 0 0.00179733
-0.00060708 0.0165096 0 0.00208235
0.00212885 0.0061951 0 0.00286802
-2.66592e-005 0.00312601 0 0.0386559
-0.00828018 0.0153779 0 3.41427e-005
-0.00170476 0.0244237 0 0.000981981
-2.90915e-005 0.00298341 0 0.0879925
-0.00185381 0.0061466 0 0.00341265
3.45393e-006 0.00277635 0 0.110679
0.00147734 0.00677235 0 0.00190581