# U  FACE_DATA 23640
#  x  y  z  U_x  U_y  U_z  
-0.00296834 0.0159323 0 -638.269 2458.78 0
0.000794309 0.0100339 0 -42.3288 2749.7 0
0.00690979 0.0130745 0 380.739 326.634 0
0.000158008 0.0018211 0 -17.9855 128.108 0
-0.000662165 0.0113619 0 386.299 2623.34 0
-0.00203768 0.00587959 0 -482.179 1738.78 0
-0.000220137 0.00748479 0 -138.896 2769.76 0
0.00214531 0.0125841 0 -187.872 2404.51 0
-0.00164167 0.00702341 0 -266.359 2531.99 0
0.00020958 0.00306993 0 2141.35 726.815 0
4.59799e-005 0.00273939 0 -34.7962 436.578 0
0.00075606 0.00524313 0 929.788 2535.81 0
0.00107075 0.0257944 0 274.932 2635.82 0
-0.000458708 0.0115994 0 361.125 2656.47 0
-0.000900467 0.00350322 0 -1122.69 1178.57 0
-0.00222355 0.00655891 0 -422.976 1779.64 0
0.00442703 0.0182294 0 1062.02 2465.66 0
7.09705e-005 0.00299924 0 -100.203 1045.44 0
-2.45517e-005 0.00292714 0 42.5434 738.482 0
-0.000543852 0.00394831 0 -1404.57 2151.95 0
7.98376e-005 0.00283498 0 -85.7775 525.832 0
0.00510868 0.0124654 0 574.491 221.432 0
7.37866e-005 0.00284217 0 -82.6903 539.782 0
-0.000122136 0.00287943 0 135.246 496.001 0
0.00117211 0.0120328 0 -347.964 2574.55 0
0.000340217 0.00636002 0 296.799 2728.03 0
-1.62375e-005 0.00331413 0 -101.806 2130.41 0
0.000288499 0.00391811 0 822.614 2355.34 0
0.00604323 0.0215883 0 1199.81 2412.52 0
0.0015748 0.0199438 0 510.403 2547.22 0
0.000642306 0.0286533 0 133.658 2682.37 0
-0.000788091 0.000235815 0 -6.34613 7.21777 0
8.45076e-005 0.00283429 0 -89.8355 521.367 0
-0.000766033 0.00453527 0 -1294.52 2302.34 0
-0.000556446 0.00360452 0 -1800.78 1633.89 0
-0.000694613 0.00330261 0 -1363.25 948.284 0
0.00425461 0.0181246 0 997.902 2444.3 0
0.00563158 0.0299784 0 1064.99 2444.7 0
0.00374311 0.0125452 0 1380.34 681.93 0
-0.000168184 0.00269727 0 91.0332 335.796 0
0.00100487 0.00483203 0 1401.59 2296.13 0
-0.00170325 0.00704586 0 -254.718 2484.86 0
-0.00047461 0.0123053 0 457.902 2600.65 0
-0.00401905 0.0129379 0 -1556.5 1022.81 0
0.000128446 0.00148328 0 -11.373 83.1518 0
0.000108141 0.00315803 0 925.271 1697.71 0
0.00299545 0.0176096 0 524.238 2571.08 0
0.00122698 0.00708374 0 653.712 2650.38 0
0.000214903 0.00307399 0 2135.88 725.256 0
0.00225142 0.0126586 0 -179.616 2390.42 0
0.000204708 0.00068009 0 4.27041 20.6969 0
4.25297e-005 0.00299727 0 -59.8986 1019.81 0
-0.000477288 0.00315875 0 -1468.2 776.069 0
-0.00378992 0.02149 0 -671.646 2634.76 0
0.000139812 0.00181138 0 -15.8526 126.224 0
0.000208917 0.00302796 0 748.025 157.283 0
-0.00160791 0.0049468 0 -779.979 2033 0
0.000941143 0.00995448 0 -200.016 2664.64 0
8.9442e-006 0.010956 0 20.7362 2850.11 0
-0.000434056 0.00133506 0 29.8826 92.9086 0
0.000566946 0.0289715 0 98.4101 2671.72 0
-7.40414e-005 0.003214 0 -582.639 1901.1 0
-0.000145493 0.00239699 0 40.3972 243.884 0
3.42483e-005 0.00298986 0 -56.6242 978.222 0
0.000575544 0.00987125 0 220.302 2830.66 0
3.71363e-005 0.00299095 0 -60.6882 984.728 0
-0.00247102 0.00772987 0 -277.831 1794.86 0
0.00096928 0.0118325 0 -356.628 2591.06 0
-9.22697e-005 0.00299969 0 130.79 1076.12 0
-0.000570617 0.0122505 0 437.524 2612.09 0
-0.000211411 0.00254812 0 76.2519 262.458 0
-0.000765289 0.00457715 0 -1283.96 2359.54 0
8.13068e-005 0.00294139 0 -143.872 716.558 0
-0.00437678 0.0203082 0 -903.616 2555.51 0
0.00226862 0.00661101 0 381.497 1762.68 0
-0.000832194 0.000220534 0 -8.49702 9.55842 0
-0.000164868 0.00301134 0 -238.602 41.2555 0
0.0012393 0.0259768 0 308.635 2634.62 0
-2.48279e-005 0.00292318 0 42.6832 727.391 0
0.000116572 0.00245177 0 -36.3137 264.609 0
9.77655e-005 0.00313112 0 854.251 1648.85 0
0.000279024 0.00328636 0 1691.81 1525.08 0
-5.75605e-005 0.0116355 0 125.283 2809.15 0
-7.47936e-005 0.0117342 0 124.768 2809.54 0
0.000518168 0.00993111 0 204.44 2851.38 0
-0.000154608 0.0030256 0 -1581.19 414.036 0
4.53443e-005 0.00299839 0 -63.0785 1028.19 0
-0.000161071 0.0027724 0 96.4851 328.025 0
0.000104836 0.00293916 0 -169.182 626.769 0
-0.00100104 0.00361077 0 -1122.6 1257.36 0
-0.000510005 0.00921774 0 -224.937 2829.7 0
0.00100295 0.0100141 0 -240.968 2617.62 0
-0.000646084 0.00336418 0 -1793.2 1322.33 0
6.96906e-005 0.00293287 0 -120.938 713.856 0
-1.67264e-005 0.00300289 0 17.658 1046.55 0
0.000173509 0.0227352 0 42.2998 2597.14 0
3.17037e-005 0.00298455 0 -55.9084 951.338 0
0.000312244 0.00306502 0 1072.6 350.882 0
-0.00212604 0.00906512 0 -65.8362 2354.3 0
-0.00049218 0.00322389 0 -1901.59 1071.74 0
0.000341345 0.00323843 0 1998.66 1159.88 0
-0.00385942 0.0216496 0 -674.012 2632.59 0
-0.000125834 0.0028813 0 131.489 466.835 0
0.00524627 0.0255212 0 1056.85 2496.21 0
0.000713781 0.0036837 0 1957.36 1559.94 0
0.00601727 0.0299149 0 1100.25 2430.78 0
-0.000344095 0.00203632 0 43.1689 155.824 0
-0.0047341 0.0239481 0 -777.545 2541.14 0
-0.000460773 0.00539436 0 -548.544 2639.86 0
-0.00196148 0.00905338 0 -37.8685 2421.7 0
0.00143807 0.0303782 0 268.143 2676.54 0
7.94637e-005 0.00293894 0 -138.885 712.821 0
0.00013473 0.00481908 0 220.999 2624.77 0
0.00105264 0.00484794 0 1411.27 2283.65 0
0.000112877 0.0030262 0 1554.47 1291.65 0
-0.00781161 0.0282885 0 -1230.06 2398.87 0
-0.000846622 0.00344471 0 -1090.33 1108.29 0
-0.00206201 0.0306837 0 -391.074 2679.97 0
-0.00313594 0.0160362 0 -698.265 2421.34 0
0.00144289 0.0198776 0 459.749 2513.62 0
-0.000135136 0.00286502 0 112.072 391.686 0
-0.000205101 0.000950881 0 3.93328 34.0278 0
0.000372212 0.00308853 0 915.337 431.999 0
0.000370404 0.000795868 0 0.382676 32.7031 0
0.000201681 0.00347815 0 1000.16 2155.92 0
-0.000147808 0.00278598 0 110.326 394.457 0
0.000218103 0.000637733 0 4.97292 17.9928 0
0.000195722 0.00313377 0 1799.82 1183.12 0
-0.00203813 0.00594128 0 -490.948 1820.83 0
0.00112067 0.00510142 0 1352.24 2331.42 0
5.16573e-005 0.00373385 0 203.257 2419.55 0
0.000381501 0.00336875 0 1822.51 1486.31 0
0.000860715 0.0258401 0 197.234 2647.65 0
-0.000116556 0.00339842 0 -685.829 2184.81 0
-0.00513668 0.0257477 0 -1100.79 2460.57 0
-0.000162894 0.00277847 0 81.428 289.981 0
8.27341e-005 0.00277738 0 -70.2451 460.194 0
0.0010674 0.0118759 0 -360.898 2589.05 0
-4.09992e-005 0.00275121 0 32.5943 448.068 0
3.29665e-005 0.00297369 0 -62.0593 899.441 0
-0.00204547 0.0090065 0 -68.1842 2369.72 0
-0.00160474 0.0048986 0 -790.012 2018.52 0
8.25825e-005 0.00294819 0 -151.842 733.351 0
4.00473e-005 0.00273627 0 -30.1243 434.488 0
-9.41642e-005 0.00295571 0 174.327 720.223 0
0.00150619 0.00997327 0 -135.287 2560.16 0
8.22134e-005 0.00268838 0 -50.9246 387.012 0
-0.000160791 0.00267895 0 85.0153 341.088 0
-0.000596112 0.00909085 0 -257.56 2816.13 0
-9.31423e-005 0.00299701 0 171.624 998.309 0
0.00235681 0.0126226 0 -159.353 2375.7 0
0.00203765 0.00557212 0 368.799 1218.58 0
-0.000165794 0.0115731 0 145.557 2793.65 0
6.0159e-005 0.0021996 0 -11.4109 195.946 0
0.000371981 0.00362464 0 1375.7 2035.05 0
-0.00733688 0.029685 0 -1274.46 2285.06 0
-0.000180414 0.00743151 0 -126.94 2790.08 0
-0.000357207 0.004885 0 -513.625 2607.07 0
0.00253943 0.00813968 0 214.858 1881.5 0
-1.29377e-005 0.00332967 0 -75.4732 2124.36 0
-0.0010235 0.00361199 0 -986.991 1106.99 0
-0.000285329 0.0030748 0 -1699.38 571.695 0
-0.000681311 0.00329291 0 -1314.94 988.968 0
-0.00260727 0.00895038 0 -215.876 1801.39 0
0.00788717 0.0276195 0 1194.77 2452.82 0
0.0089704 0.0287411 0 1332.88 2520.82 0
-0.000270534 0.00232157 0 54.5128 200.613 0
-0.00014416 0.00312601 0 -1361.49 1450.91 0
-0.000337662 0.00201762 0 41.5238 155.07 0
0.0003962 0.00337513 0 1860.07 1487.03 0
0.00121317 0.00701782 0 661.135 2654.96 0
0.000116206 0.00302915 0 1682.26 1222.08 0
0.00225197 0.00666935 0 369.877 1801.88 0
-0.000507665 0.00548922 0 -586.294 2640.32 0
-0.000231863 0.00226746 0 46.2304 202.151 0
0.000244361 0.00226851 0 -47.9269 199.677 0
0.00111028 0.00505498 0 1356.47 2327.56 0
0.000121223 0.00304184 0 1537.41 1147.09 0
0.00012049 0.00243938 0 -36.7022 259.928 0
-0.0013386 0.0186068 0 -193.498 2557.49 0
0.000102064 0.00149733 0 -9.22889 84.1468 0
0.000147362 0.00301363 0 840.392 186.796 0
0.00106981 0.0119939 0 -365.901 2588.59 0
-0.000365953 0.00411169 0 -902.241 2408.42 0
0.00557444 0.020358 0 1208.29 2401.52 0
4.86089e-005 0.00307386 0 247.986 1494.8 0
-0.000177413 0.0035472 0 -791.261 2224.19 0
-0.000632994 0.00339325 0 -1924.38 1338.09 0
0.000487307 0.00130985 0 -33.0576 100.972 0
-0.000349424 0.00402777 0 -895.13 2381.6 0
-0.00177251 0.00629586 0 -408.635 2246.41 0
-7.92525e-005 0.00273084 0 57.2157 420.041 0
0.000241714 0.00100077 0 -6.48274 40.1255 0
-0.000154516 0.0114773 0 137.599 2804.67 0
0.00502442 0.0222916 0 920.892 2588.66 0
-0.000166546 0.00272686 0 102.417 340.982 0
0.000707598 0.00365891 0 1994.61 1552.13 0
-0.00157418 0.0046046 0 -808.926 1743.51 0
0.000122725 0.00301099 0 1273.39 463.36 0
0.000172305 0.00324558 0 1259.26 1746.72 0
7.46185e-006 0.00286175 0 -9.34718 596.601 0
0.00533293 0.0140838 0 1678.12 1260.54 0
0.00520504 0.0284215 0 1076.43 2433.08 0
-0.00170266 0.00713636 0 -240.946 2480.45 0
4.38765e-005 0.00290514 0 -68.2686 670.874 0
0.00035679 0.0099507 0 138.414 2842.35 0
0.000120447 0.00300871 0 1119.88 368.403 0
7.85992e-005 0.00284146 0 -86.8902 535.194 0
0.000146556 0.00306157 0 1808.93 1080.91 0
-0.000265484 0.00230758 0 53.0889 201.382 0
-0.000558184 0.0114136 0 374.645 2663.36 0
0.000873988 0.011905 0 -378.918 2587.6 0
0.00195145 0.0157285 0 45.6997 2579.54 0
0.000415959 0.00988952 0 169.837 2842.65 0
0.00204861 0.00551694 0 368.91 1064.82 0
0.00159497 0.00893937 0 -23.9888 2534 0
0.00125366 0.00690066 0 611.185 2632.98 0
-0.000537482 0.00397822 0 -1374.24 2172.12 0
-0.00245206 0.00890865 0 -186.409 2170.27 0
-0.00591638 0.015069 0 -1872.49 1441.7 0
0.00182541 0.0157696 0 -40.8146 2580.42 0
-6.39179e-005 0.00274368 0 49.0963 436.134 0
1.24162e-005 0.00286011 0 -15.3424 592.942 0
0.000785526 0.00520879 0 961.303 2521.2 0
0.000119132 0.00288179 0 -139.412 522.762 0
0.000107617 0.00492998 0 150.043 2648.69 0
-0.000398708 0.00617064 0 -372.563 2711.91 0
-0.00031795 0.000861625 0 3.74522 32.4467 0
-0.0054742 0.0145195 0 -1927.84 1471.45 0
-0.00050603 0.0093045 0 -223.331 2830.06 0
-0.00281713 0.0160093 0 -542.136 2498.11 0
-0.00521587 0.0225645 0 -951.888 2478.86 0
0.000631138 0.00410172 0 1404.58 2140.5 0
0.00077675 0.0118594 0 -399.87 2609.87 0
-0.000339893 0.00491785 0 -502.091 2610.03 0
0.000278502 0.0033019 0 1691.05 1601.42 0
-0.000206291 0.0025551 0 73.5876 268.37 0
0.0015782 0.00885327 0 -7.29927 2523.12 0
-0.000601058 0.00917374 0 -254.502 2805.27 0
0.000107852 0.00308374 0 1011.37 1497.52 0
0.000329157 0.00324408 0 1956.06 1208.48 0
-0.000107456 0.0030138 0 -1426.6 1386.83 0
0.000995869 0.00478803 0 1412.28 2288.74 0
-0.00176263 0.00715431 0 -237.526 2422.8 0
0.000133123 0.00190024 0 -16.6253 139.502 0
0.00428452 0.0222831 0 738.943 2607.5 0
0.00249322 0.0134845 0 166.612 2419.82 0
0.000209201 0.00303326 0 1046.68 258.246 0
1.124e-005 0.00241342 0 -3.04981 256.937 0
-0.000138897 0.00282521 0 117.825 424.934 0
-0.000422518 0.00130967 0 28.4496 88.7119 0
0.000897928 0.00602889 0 830.664 2604.14 0
0.00296246 0.0177704 0 521.904 2572.78 0
-0.000240922 0.0022558 0 46.6709 198.758 0
0.000161456 0.0106342 0 54.0809 2835.13 0
-0.000169117 0.00269067 0 88.0929 333.142 0
-0.00600599 0.0132277 0 -888.89 443.306 0
-0.00498542 0.0226529 0 -903.557 2520.94 0
0.00035646 0.00189436 0 -38.3955 140.935 0
0.000360867 0.00193124 0 -40.1428 144.379 0
0.000188008 0.00159518 0 -17.5668 99.2509 0
0.00315697 0.0294361 0 613.945 2600.93 0
0.000380728 0.00331446 0 1946.9 1307.13 0
-0.000407732 0.00541329 0 -471.1 2670.17 0
0.00599218 0.0187772 0 1458.78 2150.14 0
-0.000475668 0.0124289 0 475.532 2615.69 0
9.243e-005 0.00339173 0 513.998 2158.59 0
-0.0022067 0.00902531 0 -80.0825 2320.84 0
0.000138287 0.010546 0 47.3417 2855.44 0
-4.59787e-005 0.00300592 0 42.9884 1077.66 0
0.000475334 0.00325723 0 2057.09 1077.71 0
0.0081269 0.0233608 0 1460.69 2260.76 0
-0.000136448 0.00286953 0 106.319 359.717 0
0.000465099 0.00132931 0 -31.9315 99.3553 0
0.000196949 0.00312437 0 1825.16 1134.66 0
-0.000725979 0.00459524 0 -1203.08 2386.59 0
0.00566025 0.0201173 0 1205.83 2337.28 0
-0.000237093 0.000937504 0 4.44625 34.0677 0
-7.15727e-006 0.00298867 0 10.8682 974.141 0
-0.000556128 0.00552312 0 -603.421 2641.2 0
-0.000151452 0.00278159 0 111.907 381.356 0
0.00604583 0.0167381 0 1702.15 1887.26 0
5.44524e-005 0.00307484 0 300.18 1502.99 0
3.5211e-005 0.00270778 0 -23.9373 410.973 0
-0.00210731 0.0068781 0 -387.022 2202.49 0
8.91266e-005 0.00319599 0 703.515 1843.37 0
-0.00242079 0.00974735 0 -68.8444 2277.08 0
0.00135885 0.00413507 0 797.467 1387.67 0
-0.00108228 0.00797081 0 -511.185 2723.18 0
3.29303e-005 0.00271504 0 -22.6636 417.144 0
-0.000508078 0.0208168 0 -200.062 2544.01 0
-0.00472826 0.0198065 0 -1004.24 2484.27 0
0.00152826 0.0090827 0 -55.1575 2557.38 0
-0.00252462 0.00897287 0 -229.327 2048.48 0
-4.09377e-005 0.0027578 0 33.4298 454.555 0
-0.00186927 0.0116808 0 212.878 2435.45 0
0.00108447 0.00518193 0 1290.34 2363.2 0
-0.00419392 0.0202211 0 -856.376 2517.54 0
0.000296615 0.00594885 0 295.16 2702.62 0
0.00365557 0.0156923 0 928.822 2283.79 0
-0.000138643 0.00311989 0 -1315.99 1459.43 0
3.44704e-005 0.00298593 0 -59.9809 957.857 0
-0.000249911 0.000891772 0 2.95566 31.5337 0
0.00110337 0.0099601 0 -228.5 2610.9 0
8.04689e-005 0.00279643 0 -73.5133 480.349 0
0.00779157 0.0249956 0 1314.78 2457.47 0
0.000351464 0.00337107 0 1752.25 1560.44 0
-0.00012879 0.00323538 0 -982.179 1857.39 0
0.000155895 0.00168996 0 -15.8349 110.124 0
8.56943e-005 0.00294739 0 -156.113 723.06 0
0.0053023 0.0238774 0 883.766 2555.91 0
0.000238423 0.00318026 0 1809.33 1216.95 0
0.000230406 0.00226533 0 -46.207 201.164 0
-5.15866e-005 0.00292996 0 89.8506 728.494 0
2.57476e-005 0.00286927 0 -33.6733 606.411 0
0.000105066 0.00340141 0 576.611 2149.78 0
-0.0006343 0.00341198 0 -1942.82 1340.49 0
-0.00683177 0.0130924 0 -605.699 383.435 0
-1.54609e-005 0.00299907 0 18.2411 1025.95 0
-0.00215958 0.00656839 0 -436.18 1946.65 0
0.00301179 0.0141363 0 687.052 2178.31 0
-0.000723924 0.00463742 0 -1188.68 2393.86 0
-0.000555458 0.00358088 0 -1821.32 1606.05 0
0.000287933 0.00394954 0 797.541 2377.62 0
-0.00525881 0.0259389 0 -1104.97 2468.12 0
-0.000235386 0.00314485 0 -1953.63 1062.84 0
-0.000664883 0.00104525 0 35.1911 113.278 0
0.00182857 0.0107598 0 -133.199 2472.24 0
0.00289308 0.0133881 0 561.689 2214.61 0
0.000556851 0.000459359 0 9.37537 11.8687 0
-6.31462e-005 0.00306344 0 -338.359 1465.08 0
0.00204396 0.0126442 0 -209.608 2419.94 0
-0.000369072 0.00408052 0 -916.243 2398.76 0
-0.00018247 0.00378321 0 -616.41 2386.89 0
0.000579156 0.0162179 0 -134.812 2512.78 0
0.00117061 0.0100074 0 -230.355 2604.72 0
0.000129771 0.00301154 0 1073.46 262.401 0
0.00050022 0.00329429 0 2046.47 1134.66 0
-0.00194273 0.0117557 0 218.939 2410.01 0
0.000295066 0.00600891 0 294.399 2703.95 0
-0.000154748 0.0030213 0 -1240.4 319.094 0
8.51353e-005 0.00297491 0 -175.268 823.759 0
0.000370749 0.00364798 0 1359.22 2047.41 0
0.00032381 0.000892659 0 -4.11529 36.7828 0
-0.000114683 0.00273658 0 81.4533 408.757 0
7.10543e-005 0.0030026 0 -84.42 1079.18 0
-9.6647e-005 0.00324264 0 -726.563 1927.47 0
0.000733896 0.00537107 0 861.292 2559.39 0
0.000155197 0.00494735 0 228.01 2645.73 0
0.000610019 0.00412319 0 1370.23 2186.31 0
0.000353717 0.00194986 0 -40.1223 145.949 0
-0.000244432 0.00314026 0 -2002.56 1001.34 0
-0.00502653 0.0232658 0 -882.176 2546.19 0
-0.00178789 0.0309983 0 -363.059 2685.61 0
-0.000579723 0.00361754 0 -1810.81 1633.69 0
0.00813841 0.0273314 0 1228.06 2491.39 0
-0.002496 0.0131044 0 -103.147 2322.57 0
-0.00431729 0.0290645 0 -857.681 2509.21 0
-0.000157683 0.00240005 0 43.5182 243.399 0
-6.09633e-005 0.00273787 0 45.438 431.148 0
-0.000172602 0.00356894 0 -751.442 2244.36 0
5.95493e-005 0.00280503 0 -57.7125 500.131 0
3.59382e-005 0.00297531 0 -67.6429 905.411 0
0.0038221 0.0156522 0 1029.87 2260.47 0
0.00151814 0.00899556 0 -51.4688 2514.57 0
0.00891208 0.0209237 0 1753.49 1951.38 0
0.00932881 0.0247628 0 1500.06 2192.1 0
0.000401147 0.00319889 0 2110.8 957.42 0
-1.37134e-005 0.00292236 0 23.598 728.376 0
-0.00149883 0.0199029 0 -451.671 2504.56 0
-0.000151382 0.00307642 0 -1725.95 1136.43 0
-9.99299e-005 0.00297786 0 186.006 698.4 0
0.00528439 0.0241343 0 880.256 2549.74 0
2.61097e-005 0.00286432 0 -33.3109 597.555 0
0.000206875 0.00349712 0 972.845 2110.79 0
-0.00509797 0.0234717 0 -876.986 2546.87 0
-0.000597722 0.000953511 0 29.3219 87.2947 0
-0.00793898 0.0155863 0 -1292.83 1122.74 0
0.00183935 0.0106624 0 -131.096 2472.46 0
7.52069e-005 0.00339368 0 420.899 2181.84 0
-7.77056e-005 0.00294222 0 139.909 728.434 0
-9.8985e-005 0.00297992 0 187.921 717.937 0
0.00161823 0.00911669 0 -58.5054 2556.94 0
8.21842e-005 0.00297527 0 -168.496 836.909 0
-0.00188133 0.00900925 0 -39.8566 2465.08 0
-0.00617827 0.0275965 0 -1271.98 2463.93 0
-0.000490092 0.00321051 0 -1859.63 1041.08 0
0.00945115 0.0288751 0 1379.14 2470.49 0
-0.00016434 0.00272067 0 96.3925 344.573 0
-0.00797941 0.0222445 0 -1516.15 2133.71 0
-4.01564e-005 0.00301654 0 11.0502 1140.3 0
-0.00180498 0.00506765 0 -612.267 1582.16 0
-0.000161305 0.00301261 0 -402.53 71.9005 0
-0.000482063 0.00316965 0 -1585.06 854.538 0
-0.000942791 0.00378901 0 -1456.92 1790.42 0
-0.000134053 0.00282435 0 121.25 445.13 0
0.000242746 0.000963685 0 -5.09252 37.4074 0
0.00525461 0.0274919 0 1149.67 2411.86 0
0.00306352 0.0179257 0 550.59 2583.1 0
-0.000120066 0.00324295 0 -907.125 1884.25 0
-0.00319507 0.0125029 0 -1158.15 1476.03 0
-0.000290892 0.00233844 0 56.8624 193.337 0
0.00159844 0.00482417 0 798.5 1955.81 0
0.00787978 0.0236538 0 1367.64 2282.08 0
0.00145057 0.0259009 0 366.977 2618.92 0
-0.000336257 0.00619409 0 -292.793 2724.43 0
-0.000333917 0.00172186 0 31.2277 122.282 0
0.00577509 0.0216659 0 1172.37 2479.63 0
0.000667048 0.00332313 0 1567.66 1229.51 0
0.00248969 0.00807562 0 189.042 1985.7 0
-0.00160944 0.00467215 0 -758.004 1728.08 0
1.98969e-005 0.00242157 0 -5.83733 259.772 0
0.000286635 0.0021356 0 -43.6443 173.079 0
-0.00161117 0.00618199 0 -456.101 2402.63 0
7.54635e-005 0.00268391 0 -46.3468 385.372 0
0.00101663 0.00497361 0 1331.42 2306.54 0
9.78423e-005 0.00320089 0 762.683 1831.16 0
-0.000282098 0.0245537 0 -105.352 2636.11 0
0.00160534 0.0053807 0 674.848 2175.37 0
0.000645555 0.00426047 0 1310.8 2244.4 0
0.000344665 0.00191282 0 -38.3445 143.169 0
-4.37224e-005 0.0030135 0 19.6985 1124.62 0
0.000410526 0.00592784 0 398.085 2696.72 0
-0.00161438 0.00462874 0 -734.828 1548.81 0
0.000197339 0.00307463 0 2129.3 799.026 0
-0.00787948 0.0250527 0 -1311.62 2382.88 0
0.000365567 0.000836364 0 -1.89866 35.3309 0
0.000428529 0.0031113 0 906.674 398.642 0
6.29689e-005 0.00280138 0 -60.4266 493.945 0
-0.00260928 0.0115127 0 31.4197 2101.95 0
0.00511854 0.0182191 0 1270.08 2269.06 0
-0.000191506 0.0013612 0 13.461 71.4039 0
0.000255298 0.00234631 0 -55.391 209.586 0
7.80872e-005 0.00285378 0 -90.612 551.838 0
-6.93966e-006 0.00361778 0 -15.6648 2358.91 0
-0.000112834 0.00273034 0 78.1268 405.024 0
-0.000151306 0.00308356 0 -1663.4 1189.91 0
0.000794921 0.00339323 0 1134.85 1013.53 0
0.000120559 0.00308016 0 1198.29 1428.88 0
-0.00060963 0.000994212 0 31.388 97.3454 0
-0.000187211 0.00375918 0 -641.106 2375.02 0
-0.000179749 0.00239602 0 48.3914 238.976 0
0.000583853 0.00320912 0 1087.4 734.915 0
-0.000220391 0.00307379 0 -2075.16 722.558 0
-3.20721e-005 0.00313154 0 -234.419 1700.1 0
-0.00240166 0.00829286 0 -203.897 2104.01 0
-0.000107553 0.0032363 0 -824.074 1894.44 0
0.000485775 0.00324734 0 2000.44 1097.42 0
-1.6528e-005 0.00283252 0 18.4749 548.127 0
0.000388916 0.00319175 0 2124.37 946.982 0
-0.000191501 0.000101552 0 -0.228381 0.697947 0
-0.00244196 0.00780076 0 -266.611 1926.22 0
-0.000237142 0.00223825 0 44.586 195.983 0
-0.00179252 0.00511195 0 -605.406 1737.28 0
7.86645e-005 0.00300926 0 -17.4745 1175.21 0
-0.00578012 0.0268724 0 -1243.2 2431.41 0
-0.00101007 0.00801211 0 -504.753 2740.09 0
0.000363332 0.00337974 0 1758.22 1558.29 0
0.000391279 0.00186159 0 -38.7049 137.514 0
0.000433244 0.00317308 0 1916.38 965.919 0
0.00161612 0.00543442 0 664.269 2187.05 0
-0.00207993 0.00693738 0 -380.664 2216.18 0
0.000483914 0.00474879 0 746.782 2530.34 0
0.000802557 6.40842e-005 0 0.29767 0.0965511 0
0.00066144 0.00330597 0 1499.07 1141.51 0
0.00141767 0.0197289 0 452.059 2515.55 0
-0.000651775 0.00329699 0 -1566.61 1155.82 0
0.000282152 0.00304241 0 436.369 103.482 0
-0.000357054 0.00319624 0 -2107.89 980.478 0
-0.00178284 0.00623412 0 -415.827 2237.99 0
3.8992e-005 0.00380209 0 144.42 2436.51 0
-0.00100109 0.0210667 0 -360.612 2550.47 0
0.000165033 0.00158259 0 -15.4416 96.5636 0
0.00864187 0.0174253 0 1501.08 1569.73 0
0.00315453 0.0128329 0 989.454 2105.09 0
-8.64597e-005 0.00318341 0 -708.609 1809.48 0
-0.000259494 0.0126492 0 484.566 2630.93 0
0.000466396 0.000355167 0 4.07403 3.70329 0
0.000246728 0.00318708 0 1819.72 1212.03 0
-0.000724122 0.000493878 0 0.459595 45.7837 0
-0.00236534 0.0089472 0 -137.884 2254.4 0
-0.00585899 0.0184819 0 -1390.51 2106.53 0
-0.000109395 0.00425783 0 -218.483 2550.48 0
-0.000225082 0.00307869 0 -2080.57 731.675 0
0.00116126 0.00383867 0 963.869 1407.34 0
0.000146244 0.00305529 0 1889.65 1039.65 0
0.000106639 0.00285591 0 -119.121 524.758 0
0.00516349 0.0142403 0 1813.14 1434.23 0
-0.000547118 0.0281975 0 -139.893 2674.97 0
-0.00314055 0.0188201 0 -583.138 2587.19 0
6.39205e-005 0.0034062 0 358.905 2200.68 0
0.000746714 0.00049437 0 -5.19459 50.8815 0
0.00226648 0.0258744 0 574.299 2538.01 0
-0.000137355 0.00283875 0 109.841 433.643 0
0.00173233 0.0108179 0 -169.287 2506.82 0
-0.000334456 0.00625618 0 -291.94 2725.16 0
-0.000652252 0.00338145 0 -1830.03 1349.78 0
-6.89277e-005 0.00306466 0 -407.838 1484.06 0
0.000126795 0.00304178 0 1780.26 1205.59 0
0.00478399 0.0277755 0 1035.14 2408.48 0
0.000516287 0.0229306 0 147.996 2595.05 0
5.89116e-005 0.00254342 0 -23.8395 307.468 0
-0.00795861 0.0246948 0 -1333.16 2407.56 0
0.00133689 0.00999394 0 -177.975 2594.57 0
-0.000118825 0.0220921 0 -55.7455 2578.3 0
6.34909e-005 0.0107046 0 35.5795 2851.96 0
-0.000946741 0.00381309 0 -1484.22 1831.53 0
0.00581241 0.0241952 0 994.902 2554.37 0
-0.00487736 0.01991 0 -1004.92 2455.34 0
0.00170829 0.0256098 0 453.852 2600.78 0
9.98067e-005 0.00316224 0 841.65 1730.11 0
0.00308063 0.0142797 0 687.372 2174.91 0
-0.000279242 0.00307977 0 -1889.12 630.437 0
-0.000183934 0.00303725 0 -1631.03 451.08 0
7.83288e-005 0.00286324 0 -94.9459 566.125 0
-0.000440884 0.00514493 0 -578.104 2624.16 0
0.000455558 0.00477565 0 698.919 2548.17 0
0.00520625 0.0221693 0 969.506 2553.99 0
-0.00179507 0.00722781 0 -232.975 2378.84 0
5.54873e-005 0.00266826 0 -32.7109 378.547 0
-0.00157971 0.00456195 0 -772.763 1580.23 0
4.18607e-005 0.00302762 0 21.7419 1211.84 0
-0.000194972 5.19224e-005 0 -0.0873394 0.324275 0
-0.000846289 0.00342394 0 -930.601 959.443 0
-0.00105965 0.00823661 0 -404.776 2720.57 0
0.000163413 0.00479131 0 269.453 2622.4 0
-8.2874e-005 0.00288534 0 111.867 596.104 0
0.00157378 0.00552232 0 636.675 2256.11 0
-7.66839e-005 0.00293931 0 135.131 721.572 0
0.000101978 0.0109948 0 44.1658 2851.59 0
-0.000363872 0.00601296 0 -348.187 2704.59 0
0.000117978 0.00287815 0 -137.648 524.4 0
0.000219153 0.00318835 0 1695.21 1347.07 0
-0.00163196 0.00449872 0 -333.32 538.583 0
-0.000221409 0.00303399 0 -849.378 231.697 0
-0.000370966 0.0244074 0 -127.17 2631.04 0
-0.000466554 0.00315829 0 -1567.88 831.82 0
0.000396164 0.00331941 0 1968.41 1285.24 0
-0.00482666 0.0238063 0 -789.077 2549.2 0
0.00133411 0.00522841 0 956.506 2520.76 0
-0.00267568 0.00982141 0 -45.1435 1753.28 0
-0.000480207 0.0219659 0 -187.489 2579.79 0
0.00177473 0.0106071 0 -139.248 2498.9 0
0.000428512 0.00597987 0 400.152 2696.55 0
0.00330832 0.0202369 0 559.148 2612.78 0
-0.00036699 0.012473 0 483.206 2585.28 0
-0.000901486 0.00347959 0 -945.424 969.202 0
-9.70158e-005 0.00294708 0 171.069 686.944 0
-0.00110466 0.0144253 0 473.958 2533.62 0
-0.00107199 0.0143087 0 474.769 2534.26 0
0.000113095 0.0030798 0 1082.39 1464.5 0
0.000776547 0.0117402 0 -400.88 2612 0
-0.000196596 0.00302496 0 -735.977 173.155 0
-0.00581483 0.0148124 0 -1876.13 1428.67 0
0.000125326 0.00308478 0 1260.35 1411.11 0
-0.00172589 0.0230235 0 -540.77 2573.77 0
-0.00123798 0.0114294 0 304.89 2657.32 0
-0.000106038 0.00301072 0 -1405.06 1312.22 0
7.68012e-005 0.00277918 0 -66.0035 464.797 0
-0.000218387 0.00226751 0 44.1488 203.554 0
0.00288382 0.0120736 0 87.0214 1448.91 0
0.000136685 0.00272066 0 -88.3084 382.177 0
0.00126396 0.00994364 0 -197.85 2596.06 0
0.000169734 0.00323168 0 1275.75 1720.58 0
3.33298e-005 0.00296283 0 -63.5804 853.094 0
7.38909e-005 0.00285244 0 -85.5417 552.845 0
0.00226662 0.00684142 0 406.018 2000.19 0
-4.80444e-005 0.00288948 0 69.5775 635.214 0
0.000117291 0.00304527 0 1370.26 1291.64 0
0.00044057 0.00316393 0 1838.1 932.108 0
0.00025781 0.000139806 0 0.547672 0.882107 0
-0.000553437 0.0115383 0 388.213 2645.78 0
0.00174054 0.0109254 0 -165.375 2498.33 0
-0.00657824 0.0304887 0 -1192.7 2376.01 0
-0.00287878 0.0309438 0 -538.695 2633.16 0
-1.74214e-005 0.00292383 0 30.0549 731.499 0
0.000417861 0.00311152 0 1082.72 463.69 0
-0.000158816 0.00302837 0 -1663.18 437.435 0
0.000540608 0.00339996 0 2057.29 1269.15 0
0.00322243 0.0179545 0 652.513 2588.32 0
-0.000159371 0.0013528 0 10.9555 68.8338 0
0.000126077 0.0159893 0 -3.21422 2470.12 0
-0.00432652 0.0294311 0 -854.889 2511.36 0
0.0015673 0.00546801 0 642.007 2254.41 0
-5.0904e-005 0.00292621 0 87.2501 719.274 0
-0.000106737 0.00293051 0 166.155 604 0
0.00275932 0.0110589 0 11.045 1975.7 0
0.000556951 0.00340784 0 2051.64 1269 0
0.000399007 0.0063813 0 336.68 2729.38 0
-4.55764e-005 0.00288684 0 64.5571 630.983 0
5.78688e-005 0.00240298 0 -16.6218 252.22 0
-0.00135948 0.0128543 0 367.961 2555.42 0
0.00105587 0.00489705 0 1410.33 2289.26 0
-0.00180772 0.00736401 0 -233.511 2409.11 0
8.62884e-005 0.0107917 0 33.1229 2840.6 0
-1.73838e-005 0.00299616 0 23.6695 1010.34 0
-0.000559779 0.00402893 0 -1382.54 2200.53 0
-0.000129894 0.00339006 0 -757.471 2139.59 0
-0.00108645 0.0209701 0 -367.34 2544.02 0
-0.000355289 0.00318516 0 -2105.63 944.365 0
6.75287e-005 0.00268766 0 -42.1666 390.02 0
-1.6399e-005 0.00282695 0 18.1324 540.684 0
0.000375645 0.00184967 0 -38.0335 136.592 0
0.000226595 0.00318087 0 1754.5 1266 0
-0.00157723 0.0197887 0 -428.204 2538.76 0
0.000153682 0.00302297 0 1512.95 410.959 0
-0.000983791 0.00376429 0 -1387.82 1738.83 0
0.00320404 0.0139037 0 863.512 2137.75 0
-0.000399729 0.0051532 0 -514.519 2636.18 0
-8.43671e-005 0.0028893 0 116.779 601.36 0
0.00153091 0.0204307 0 528.324 2508.6 0
0.0023948 0.0125217 0 -146.046 2361.54 0
0.000662239 0.00525468 0 812.05 2566.25 0
-0.00103759 0.0179087 0 -68.7316 2540.45 0
-0.00194218 0.00558429 0 -517.052 1867.08 0
-0.000960129 0.00376594 0 -1430 1762.46 0
-0.000309837 0.00306474 0 -1000.91 335.241 0
0.00162461 0.00920594 0 -59.2484 2549.04 0
0.00346181 0.0203111 0 601.695 2631.46 0
0.000412094 0.000782235 0 0.35245 34.105 0
4.10836e-005 0.00290739 0 -64.5826 677.829 0
0.00107752 0.00513333 0 1308.07 2382.95 0
-0.00139776 0.00696247 0 -427.949 2653.78 0
5.83714e-005 0.0023895 0 -16.1732 247.925 0
0.000501828 0.0119171 0 -452.901 2644.66 0
-2.97555e-005 0.00300349 0 32.9857 1053.46 0
0.00113092 0.00612109 0 979.532 2569.24 0
3.11664e-005 0.00285722 0 -38.441 583.895 0
-0.000756348 0.0223669 0 -285.959 2584.85 0
0.000606022 0.00322532 0 1095.6 718.478 0
0.00858419 0.0213223 0 1686.12 2026.24 0
0.00228739 0.00873166 0 134.961 2311.48 0
-0.00330691 0.0124678 0 -1209.39 1352.27 0
-0.00135503 0.018735 0 -193.441 2570.86 0
-0.00782909 0.0173425 0 -1829.08 1647.28 0
0.000179373 0.00168518 0 -17.92 110.262 0
0.000181353 0.0228576 0 41.8647 2597.52 0
0.00116853 0.00608209 0 999.449 2561.91 0
0.00534216 0.0272787 0 1155.94 2406.97 0
0.000808836 0.00340365 0 1127.64 1014.54 0
-0.00176706 0.00728799 0 -232.381 2407.74 0
0.000366125 0.00308127 0 778.237 341.658 0
0.000142062 0.00271694 0 -89.4965 375.54 0
0.000456136 0.0264018 0 91.0826 2658.07 0
0.000149779 0.00301624 0 968.055 261.624 0
8.09965e-005 0.015903 0 -6.62793 2476.94 0
3.07264e-005 0.00286231 0 -38.8251 592.652 0
-0.000148146 0.00339011 0 -849.875 2073.85 0
-0.0064378 0.0277565 0 -1218.26 2330.15 0
0.00072806 0.00532362 0 862.705 2558.15 0
-0.00065633 0.00335203 0 -1728.31 1290.45 0
-0.000360464 0.000878987 0 6.11057 36.4055 0
-9.67537e-005 0.00295742 0 177.645 712.149 0
-0.000484113 0.00948683 0 -186.381 2820.38 0
-0.000565445 0.00399845 0 -1399.78 2181.47 0
0.000588623 0.00111811 0 -34.3949 105.864 0
0.000130395 0.00304539 0 1775.53 1203.2 0
0.000107754 0.00285149 0 -117.771 518.065 0
0.00165731 0.0250536 0 443.235 2576.72 0
0.00285988 0.0119675 0 -14.1822 1395.69 0
-9.54028e-005 0.00428588 0 -198.845 2571.03 0
-0.000124414 0.00317156 0 -1056.73 1702.28 0
-0.00814733 0.0285856 0 -1234.89 2371.54 0
-0.000216377 0.0031251 0 -1934 1039.88 0
0.00549751 0.012219 0 224.537 78.6025 0
-0.00550796 0.012201 0 -251.786 74.0385 0
0.00287309 0.0132504 0 562.188 2164.26 0
0.000396043 0.00090361 0 -7.51472 42.9798 0
-9.96587e-005 0.00294535 0 173.132 671.162 0
-0.00215947 0.00674928 0 -413.052 2077.09 0
-0.000289559 0.000893856 0 4.14046 33.4508 0
0.00184728 0.00894591 0 22.2991 2478.27 0
-0.000404895 0.00611192 0 -375.032 2711.8 0
-0.00085135 0.00350535 0 -1372.91 1428.83 0
3.34633e-006 0.00298331 0 -5.92412 948.927 0
0.00378526 0.0199019 0 708.612 2530.14 0
-0.000528492 0.024373 0 -173.367 2631.51 0
-0.000842118 0.0116133 0 385.845 2632.39 0
-0.00298148 0.0188909 0 -527.276 2599.37 0
5.9556e-005 0.0025331 0 -23.444 303.083 0
-0.000468824 0.00121303 0 29.2514 86.5397 0
9.1581e-005 0.0171817 0 21.4382 2453.67 0
-0.00127026 0.0113439 0 293.951 2648.12 0
0.00402234 0.0130084 0 1656.41 1100.99 0
-0.000363163 0.00496329 0 -512.997 2607.77 0
-0.00609252 0.0268039 0 -1154.3 2434.3 0
0.000283831 0.00172705 0 -28.1186 120.041 0
-0.000884834 0.00452052 0 -1452.43 2223 0
0.000104251 0.00312707 0 919.112 1628.44 0
0.00028648 0.000908897 0 -3.84403 35.8233 0
0.00627587 0.0218045 0 1215.56 2383.06 0
0.000138189 0.00301242 0 947.175 206.801 0
-8.45766e-005 0.00300744 0 -6.5989 1194.79 0