/*--------------------------------*- C++ -*----------------------------------*\
| =========                 |                                                 |
| \\      /  F ield         | OpenFOAM: The Open Source CFD Toolbox           |
|  \\    /   O peration     | Version:  dev                                   |
|   \\  /    A nd           | Web:      www.OpenFOAM.org                      |
|    \\/     M anipulation  |                                                 |
|*---------------------------------------------------------------------------*|
|* OpenFOAM for Windows 18.02 (v1)                                           *|
|* Built by CFD Support, www.cfdsupport.com (based on Symscape).             *|
\*---------------------------------------------------------------------------*/
FoamFile
{
    version     2.0;
    format      ascii;
    class       volScalarField;
    location    "1e-005";
    object      alphat;
}
// * * * * * * * * * * * * * * * * * * * * * * * * * * * * * * * * * * * * * //

dimensions      [1 -1 -1 0 0 0 0];

internalField   nonuniform List<scalar> 
23640
(
7.57001e-006
1.21508e-005
1.85168e-008
0.0329347
1.45745e-005
5.99913e-005
2.08143e-005
8.91791e-006
8.96346e-005
1.51607e-005
0.00533942
4.13618e-005
0.000314348
1.13083e-005
3.77707e-005
4.30089e-005
4.31502e-006
0.00251823
0.00516795
9.67267e-005
0.00369255
1.77218e-009
0.00388563
0.000641806
1.01273e-005
2.84032e-005
0.000884787
0.000162162
2.23233e-006
2.12376e-005
0.0129119
0.440336
0.00348331
5.81245e-005
6.29594e-005
2.69903e-005
4.52926e-006
0.00470406
4.33638e-008
0.000778656
4.30989e-005
9.50852e-005
9.45343e-006
1.0893e-007
0.0695694
0.000703073
9.66513e-006
2.32531e-005
1.52106e-005
8.86219e-006
1.59753
0.00428229
1.93847e-005
5.65206e-006
0.034915
1.48291e-006
8.57504e-005
1.84308e-005
6.08119e-006
0.0312311
0.014286
0.000999201
0.00788336
0.00468815
9.84443e-006
0.00457623
3.8587e-005
1.13361e-005
0.000423124
9.99782e-006
0.000724256
5.6573e-005
0.00251675
4.16691e-006
5.88144e-005
0.118403
2.76036e-008
0.000759589
0.00516644
0.00749127
0.000826225
0.000148202
6.09485e-006
5.98401e-006
9.18502e-006
4.07178e-006
0.00414679
0.000218805
0.000669174
4.29023e-005
1.36615e-005
1.85001e-005
4.20899e-005
0.00337451
0.00498708
5.55289e-005
0.00480965
4.10044e-006
4.59708e-005
3.29249e-005
5.40028e-005
5.50515e-006
0.000319722
0.000375599
4.23998e-005
0.00429195
0.00334056
4.22305e-006
4.7991e-005
5.06543e-005
0.0173093
0.00267153
6.71234e-005
4.11353e-005
4.21294e-005
0.00197211
3.35664e-005
0.014788
6.45694e-006
2.74157e-005
0.00012816
0.305856
4.32747e-006
0.359993
0.000316331
0.000656601
2.1215
8.64014e-005
5.86229e-005
3.55305e-005
0.000258303
9.142e-005
0.000365343
0.000512269
0.000465725
0.000179523
0.00405229
1.07257e-005
0.00540046
0.00483418
5.11039e-005
8.56223e-005
0.00230255
0.0054627
0.00123934
2.79526e-005
0.00488542
0.0014419
1.46337e-005
0.000407443
8.77917e-006
5.66485e-005
6.44763e-006
0.0171504
0.000163028
0.00281419
2.07879e-005
6.94237e-005
3.93156e-005
0.000874747
4.0703e-005
1.15885e-005
2.65999e-005
1.83817e-005
0.00168056
0.0018373
0.00148011
0.000297445
0.00446041
8.65252e-005
2.37117e-005
3.89316e-005
5.79456e-005
4.65994e-005
0.00630752
0.00530513
3.56757e-005
4.97028e-005
0.00763872
2.63544e-005
0.0698372
4.61138e-007
1.04388e-005
0.000135697
2.63151e-006
0.00234849
0.000348977
3.62745e-005
0.0204014
0.000149241
0.000113618
0.0046468
0.226909
6.31397e-006
3.5734e-006
0.00052114
4.20987e-005
6.03918e-005
2.64183e-007
0.0003625
0.00534249
1.87194e-007
0.00422021
9.34389e-005
0.00465061
9.16443e-006
2.32423e-007
0.00368776
4.68139e-005
0.00213425
1.28392e-005
1.09227e-005
1.42332e-005
9.6006e-006
5.76241e-005
4.83186e-005
2.56911e-005
9.39802e-005
3.19167e-005
1.53551e-007
1.50042e-005
0.00497191
0.00531387
4.22807e-005
0.000824635
6.48329e-005
3.3088e-005
0.317903
2.04321e-007
1.33908e-005
8.98155e-006
3.17411e-006
8.10739e-005
1.14481e-005
6.78088e-005
0.000151585
0.000793597
4.98203e-005
1.43279e-005
0.000470462
6.34254e-005
1.09779e-005
4.43298e-005
9.42569e-005
0.0295732
4.32389e-006
7.59814e-006
2.90563e-006
0.0103905
0.000552883
0.0366394
2.79408e-005
1.00706e-005
0.00600267
7.00616e-006
0.00082776
8.32573e-009
3.54714e-006
0.00767745
0.00532819
0.0489712
0.0108917
6.66271e-005
4.79721e-005
1.92749e-006
9.22182e-006
0.000570244
4.37703e-005
7.32543e-006
0.00411292
2.48886e-005
2.2265e-006
0.000105491
0.0239307
7.35726e-005
6.47853e-005
2.59563e-006
0.297936
0.00523726
4.58412e-005
0.000602281
1.18643e-006
0.00212866
0.00573046
8.38898e-005
0.000917268
2.54928e-005
4.89819e-005
1.91826e-005
0.0057089
7.51269e-005
3.77649e-006
4.45361e-005
2.89032e-005
0.00536645
1.29899e-005
3.68333e-005
4.83749e-006
3.22247e-005
4.41108e-006
0.00031284
0.00471554
0.359523
2.31037e-005
0.00397413
0.000226838
0.000107548
0.00056737
0.0431867
0.00206728
3.59941e-006
9.14523e-005
0.00650514
0.00439542
0.00514092
0.000531939
3.48528e-005
1.39734e-008
0.00505359
7.10808e-005
3.84073e-006
6.2614e-005
6.26699e-005
0.000157894
0.000666052
7.77819e-005
0.000858428
1.78125e-005
4.51277e-006
1.07414
0.00196856
8.95799e-006
0.000137112
0.000236577
4.2683e-005
2.28906e-005
2.14881e-007
2.60946e-005
1.24232e-005
3.21596e-005
1.91448e-006
0.00163938
0.000158179
0.271687
0.00317527
0.00243049
0.000785959
3.99779e-005
6.14041e-005
8.68205e-005
0.00538799
6.6332e-005
3.4686e-006
0.0159547
6.16939e-005
0.00146846
8.23099e-006
0.00612252
0.00719135
0.00508468
0.000337941
0.00461789
0.0047309
3.93523e-006
4.5075e-005
6.9594e-007
0.000167457
2.32641e-005
0.0053048
2.94061e-005
0.000103537
0.000208942
3.8561e-006
0.0051432
0.000317208
3.50302e-006
0.0249467
1.75294e-007
1.90054e-005
0.000595033
0.00285575
0.000222803
4.29642e-005
0.0019239
5.44852e-005
0.00222917
3.32971e-005
0.00166009
0.000580154
1.10909e-006
0.00413985
5.27699e-005
1.34967e-007
2.00937e-005
5.42982e-005
0.000916151
0.263475
0.0029525
1.02826e-005
0.000624357
9.27452e-007
0.000109545
8.58337e-005
4.37483e-006
0.000586247
3.19671e-005
0.019621
2.51742e-006
3.38854e-005
4.13721e-005
6.09386e-005
0.0101436
0.00592217
0.000106629
0.00512383
4.09931e-005
0.000846765
4.7792e-005
0.000108367
7.71477e-005
0.00811273
0.00406387
3.14281e-005
5.95532e-005
1.80426e-005
0.000201221
0.29548
6.83728e-006
0.004543
9.11498e-006
3.51645e-006
0.0826985
0.00199616
0.00360786
0.000366396
0.003309
0.000122149
2.75468e-005
0.000260367
0.0159497
0.000250381
0.00612233
1.32212e-005
2.07623e-005
0.00201213
4.04244e-005
0.000709229
2.32964e-005
0.00535353
2.35094e-005
526.587
3.88259e-005
0.0068154
5.36365e-005
0.00162503
0.00164805
1.82126e-005
0.000108798
0.00448877
1.9471e-005
0.000108104
8.3764e-005
6.61113e-005
42.6761
3.20793e-005
2.64145e-005
3.38439e-005
6.0466e-007
4.16444e-005
0.000117949
0.00023975
5.50347e-005
0.0529416
3.55877e-007
1.90994e-006
0.000949305
8.94364e-006
8.08346
8.86675e-005
0.0689717
3.71251e-005
1.94374e-006
0.000127916
2.11306e-005
4.19592e-005
3.6756e-005
0.00204375
2.85944e-007
0.0106417
8.77158e-006
0.000567457
0.0405389
0.000723087
0.000491449
1.70294e-005
3.07186e-005
4.00017e-005
0.00167335
3.67259e-005
0.00400842
5.28989e-005
0.0071958
0.000112419
2.60858e-005
6.34167e-005
6.66299e-006
5.18873e-005
4.3845e-006
3.39254e-006
0.000164795
0.000825894
4.03072e-006
1.39297e-005
7.04672e-006
0.0035108
5.54216e-005
6.36365e-005
3.26105e-006
9.53654e-005
0.00572431
5.91171e-005
0.00367838
968.375
3.00623e-005
1.8682e-005
7.02855e-005
0.00316657
0.000107104
0.00293985
5.99977e-006
3.49689e-005
0.000934733
0.000133108
5.7603e-005
3.3046e-006
4.81059e-005
1.9873e-005
6.33313e-005
4.03634e-006
5.34215e-005
1.51744e-005
6.0559e-005
1.97184e-005
3.14393e-005
6.33751e-006
8.75328e-006
3.2921e-005
0.00110369
1.59746e-005
1.48711e-005
0.000357748
1.19294e-005
2.48638e-006
1.69462e-007
0.000248737
3.70532e-005
1.53242e-005
8.50965e-006
0.00424391
0.007383
8.33765e-006
0.00215722
2.59703e-005
0.000367279
0.00486746
0.00382006
6.01244e-005
0.0046549
9.94121e-005
1.73032e-005
312.781
1.26929e-005
1.59599e-005
0.00358959
0.0112695
0.00527628
7.28931e-006
4.16278e-006
3.96378e-005
8.79901e-006
0.0897821
6.94098e-005
0.00633801
0.000105192
0.00443184
0.000610633
1.01041e-005
3.79215e-005
2.73045e-005
0.00473358
0.0101758
1.11153e-005
3.93768e-005
9.50529e-005
6.45937e-006
0.00507655
9.32787e-005
0.000486675
5.33735e-005
3.79642e-005
0.00528695
0.00537111
0.00710801
0.000104269
2.5141e-005
1.78697e-006
7.33797e-005
2.87968e-006
5.87069e-005
0.00306025
3.09553e-005
8.77271e-006
4.19174e-005
3.64227e-005
5.62199e-005
6.49211e-005
5.08586e-006
4.2227e-005
5.67351e-006
0.306442
0.00472383
3.7045e-005
3.47407e-005
0.0105295
1.15665e-005
0.00472544
2.64059e-005
0.00507152
5.41423e-005
1.41431e-005
9.21204e-007
4.32453e-005
2.9318e-007
2.64323e-005
4.13772e-007
0.0414408
5.60478e-005
2.57321e-005
0.00267729
2.71807e-005
9.28819e-005
4.01188e-006
0.0019678
0.00195625
5.44707e-007
6.92495e-005
0.00506956
0.000441323
0.00224702
3.99754e-005
4.2431e-005
0.240996
0.000945043
1.2398e-005
9.28659e-005
0.0110195
3.74239e-005
0.00204571
3.82145e-005
8.82918e-006
0.000124937
0.000554709
0.00204156
7.62859e-005
7.27078e-011
1.34712e-011
4.28468e-006
0.181445
0.000958509
6.97027e-005
0.307916
4.51429e-005
3.3299e-005
5.31877e-005
0.00527804
5.57355e-006
4.82016e-005
1.3532e-005
9.02242e-006
0.00734763
0.0345365
0.000100492
1.56733e-005
1.40487e-007
6.73586e-005
0.00149204
0.0260667
4.6937e-005
0.000716339
0.291887
2.16099e-006
2.3064e-007
0.00110928
9.2433e-006
0.0035139
3.65151e-006
5.81003e-005
3.87089e-005
0.00112051
6.5383e-005
0.10675
0.0052492
6.31649e-005
0.000480136
0.0014738
4.86633e-005
0.0004502
3.28788e-005
0.00140155
5.38355e-005
0.00336143
0.000622502
4.22698e-005
4.51877e-007
4.92706e-010
2.54761e-005
5.94588e-005
2.23904e-005
0.00345884
1.21419e-005
6.12029e-005
0.000923283
2.54367e-005
7.35453e-007
0.000166589
5.23729e-009
1.64247e-006
4.1206e-006
4.38982e-005
0.0265566
4.03563e-005
0.00434021
0.00627252
0.00122904
0.00293271
6.1053e-005
2.426e-006
4.11135e-005
0.00681681
5.19855e-005
1.32331e-005
6.31488e-005
0.00708078
5.98823e-005
0.000369479
0.00186099
0.00519166
0.000215388
1.11204e-005
3.59342e-005
0.00289081
0.000266212
3.14354e-005
3.57919e-005
1.70192e-005
8.33061
0.000590844
4.72263e-006
0.00406212
0.000571465
0.0106805
5.97191e-006
0.00147721
0.00010439
0.0201852
3.06889e-006
0.00582412
7.80401e-005
0.00341294
0.000163551
5.09692e-005
9.48538e-005
0.000617887
6.8368e-005
0.000573177
4.45607e-005
0.0043969
0.000113695
0.00429936
7.33971e-007
3.62055e-005
0.385752
1.90702e-008
8.09117e-007
4.69049e-006
0.0378379
0.000429141
0.000793378
0.000124475
6.9573e-005
3.9189e-007
2.98151e-005
0.00152984
5.72014e-005
7.7793e-007
0.00119449
6.76659e-006
0.00557601
5.12828e-006
0.000696265
9.21152e-005
8.12266e-005
1.51436e-005
0.0174572
2.54632e-005
0.0119531
2.27134e-005
0.00459394
0.00425116
3.33336e-005
1.4386e-005
0.000713363
1.26618e-005
0.0175319
3.57161e-006
0.000107088
1.95341e-005
3.12739e-005
3.84437e-005
4.86101e-005
0.00011377
1.37452e-007
3.31412e-005
0.000172665
5.69796e-006
0.0012275
0.000269738
0.00596695
2.63056e-005
0.00154898
4.01735e-005
0.000586731
0.00206422
0.00509476
6.74799e-005
4.92665e-005
5.91611e-005
0.00214234
1.29419e-007
3.77834e-005
0.00495794
0.000104872
0.0055914
5.5397e-005
0.00285275
0.00194768
0.0177326
4.03239e-005
0.000569121
1.47669e-005
2.40689e-005
0.0011245
5.03978e-005
6.57468e-006
0.0052762
340.875
4.43829e-005
0.000116652
9.54683e-005
7.72819e-005
5.86573e-005
6.86172e-006
4.49688e-005
0.000207451
0.00108391
0.00118909
0.00557056
0.00383315
0.103532
1.93266e-005
9.24413e-005
0.00127925
0.00605292
0.00459503
3.78304
2.124e-006
0.000827803
0.000388919
0.000629593
1.15082e-006
3.53666e-005
2.07139e-005
0.00486969
0.00989479
6.13972e-005
9.83576e-005
0.00708907
0.000254725
0.0251232
7.45316e-006
1.52452e-008
0.000520641
4.8394e-005
1.12032e-005
0.000212917
0.000148488
7.29675e-007
1.48334e-005
1.27372e-007
0.000898121
0.00520239
3.10397e-007
8.67076e-006
0.0108745
0.00183148
2.31788e-008
0.000145516
1.30744e-005
8.3925e-005
0.00273598
0.000158786
1.04666e-006
1.61332e-005
9.62839e-005
0.00303563
4.97888e-005
0.00131397
0.00637213
0.00456314
0.00583293
4.36495e-005
0.00157286
2.0542e-005
0.000472322
0.000325627
2.04606e-005
3.217e-006
0.000103135
1.44617e-005
0.0251337
0.00502346
0.00322655
8.09836e-008
4.41305e-005
0.0561331
0.000185653
2.52425e-005
2.33436e-005
4.74436e-005
0.0082878
4.6755e-006
7.93911e-005
3.03047e-006
5.49386e-005
0.00601736
0.000102791
0.00225678
0.00137553
3.61301e-006
0.00858495
3.57039e-005
0.00499463
0.00305878
2.20423e-005
1.34689e-005
2.03994e-005
0.00222388
1.72712e-008
2.31844e-005
0.000502113
3.5314e-005
1.239e-005
0.00439861
4.47375e-006
4.60862e-005
1.30923e-005
2.92541e-005
0.0144192
5.94136e-006
2.60887e-005
0.00534255
6.98845e-006
0.00476859
6.681e-005
8.24955e-006
6.70837e-005
4.16919e-005
2.25572e-005
4.52191e-005
0.00374001
4.92209e-006
7.1097e-006
4.90127e-005
2.82299e-005
2.86219e-005
0.00278167
1.14191e-007
3.39022e-005
0.00121319
0.00522376
4.4451e-006
0.0217984
1.32981e-005
4.26362e-005
0.00115157
0.000100321
0.0168526
6.22091e-006
6.42577e-005
5.6031e-005
9.16809e-005
4.77829e-006
0.00425112
0.000154867
3.98505e-005
0.000902367
0.000125122
3.54129e-006
4.01923e-007
9.34588e-007
1.39672e-006
6.51768e-005
0.00420741
2.00744e-005
0.000566729
8.66966e-005
8.57243e-006
2.01866e-005
7.3353e-005
2.52855e-007
0.00459858
0.14953
5.13678e-007
0.000957706
0.000179009
1.8368e-006
1.7152e-005
0.00950395
0.000157156
2.97938e-005
0.00477529
0.000146802
9.73991e-006
7.95622e-005
0.0018456
6.00976e-005
4.49057e-005
4.63025e-005
9.69349e-005
9.0762e-006
5.63342e-006
0.0025877
2.50194e-005
1.97455e-005
0.00122222
0.000456695
5.18937e-005
0.00093023
0.111847
3.60534e-005
6.95953e-006
3.94687e-005
0.0754554
0.000726188
0.00285403
4.56572e-005
0.00389676
1.11811e-005
9.82274e-007
9.37773e-005
6.47723e-005
0.000753384
3.3066e-006
0.0110088
3.03271e-005
3.62375e-006
1.21253e-007
0.000549861
0.00199463
4.36206e-005
0.00190562
9.14344e-007
1.95119e-005
0.000292793
0.000220205
1.21474e-005
0.000501128
0.0140811
1.34525e-005
0.00103416
7.41e-005
2.16774e-005
4.27957e-005
0.00172111
2.15406e-007
3.35572e-005
4.0567e-005
0.00527602
0.000173973
3.88043e-005
0.000147525
1.12023e-005
1.67711e-005
0.000100446
5.69938e-005
2.13606e-005
3.79387e-005
6.45997e-006
1.73584e-005
2.373e-005
6.30479e-005
1.18213e-007
3.34094e-008
0.0237461
3.04964e-006
3.462e-005
0.0031603
2.90445e-006
0.000111886
0.0010508
0.00135661
3.86014e-005
0.0111986
0.00995293
1.09337e-005
2.7601e-005
0.000429346
0.00277513
2.34741e-007
0.000240786
0.00163965
0.0009396
3.45669e-006
2.14831e-006
5.69264e-006
0.447688
6.53406e-005
7.76952e-005
6.4882e-005
0.0794065
0.00315061
8.3969e-006
8.48592e-006
0.00618779
0.273956
4.08643e-006
9.31979e-007
1.9429e-005
1.51878e-007
2.01254e-006
0.00526192
3.0175e-006
0.00229559
0.00473824
2.6161e-005
8.6077e-005
0.0227165
0.00545308
3.56218e-006
0.00153613
8.05839e-005
0.00394365
3.19456e-005
8.58524e-006
6.38028e-005
3.93273e-006
0.00174156
2.82031e-005
0.000254457
0.00411707
4.76608e-005
5.51883e-006
0.00331862
0.00356216
5.85029e-005
0.000118207
0.00323541
0.000675839
0.000117869
0.00144259
0.000108508
8.39033e-006
9.51087e-005
3.38402e-006
1.62771e-005
1.95265e-005
6.20372e-005
0.00315962
0.000113796
9.20501e-006
5.41543e-006
0.00464906
0.00455595
2.86678e-006
4.03014e-006
0.00427792
0.000244093
0.00148629
0.000606071
1.37292e-005
0.00192903
3.74275e-005
1.86082e-005
1.88228e-005
1.60076e-005
2.9857e-005
3.37136e-006
400.565
9.28924e-006
0.00549064
1.27112e-005
0.000112568
0.00553717
5.62366e-005
2.4732e-005
0.000244117
1.16947e-005
0.00071962
4.07312e-006
0.0050498
0.000706376
5.54729e-005
3.56786e-005
2.56826e-005
4.06152e-006
2.81088e-005
0.0114074
0.00317711
3.3805e-005
2.08739e-007
1.07195e-005
9.25038e-006
4.89829e-005
0.00328184
0.00500701
3.36333e-005
0.00852246
0.0018681
0.0604796
0.000117222
1.87975e-005
1.02665e-005
0.00478298
3.40194e-005
5.41807e-009
2.40349e-005
3.0347e-005
0.00978299
1.08725e-007
2.58681e-005
4.62445e-005
6.0737e-005
5.50539e-005
0.0031032
5.27073e-005
4.25564e-007
2.72084e-005
0.00222533
3.50582e-005
3.12263e-007
0.00312424
1.74861e-005
9.72275e-005
4.31645e-006
3.81142e-006
0.000338234
0.0151815
3.52567e-006
0.00772545
0.000109665
0.0060566
8.20737e-005
0.00188852
0.001464
0.000125509
6.10751e-005
3.38734e-005
1.59311e-009
1.75756e-006
7.39755e-005
7.92739e-005
6.61822e-008
1.15817e-006
1.19849e-007
2.5441e-005
0.00390298
0.00186034
0.00553102
7.21292e-005
5.50911e-005
5.42701e-005
0.00388783
3.89728e-005
0.00547519
2.69942e-005
4.73095e-005
7.66345e-006
0.00905272
5.35529e-006
0.00010968
4.04058e-005
4.11408e-005
1.89426e-005
4.76039e-005
4.10059e-006
0.000517422
0.00484559
6.56676e-006
0.00428448
3.58262e-005
2.87486e-005
0.0108036
5.99243e-007
0.0134134
0.00731104
2.01306e-005
860.331
3.52179e-005
6.41236e-005
6.03708e-005
0.00470579
0.00513699
0.00394125
5.54131e-005
7.73968e-006
0.000243382
0.00526365
1.95108e-005
2.05997e-005
6.3166e-006
6.74764e-005
1.59317e-006
0.00113551
0.000118095
0.0020873
9.21085e-005
1.99201e-006
0.00135094
6.45442e-005
0.000152729
1.12718e-005
3.4111e-005
4.90079e-005
3.77292e-005
0.00486111
5.61129e-005
0.000381406
3.21555e-005
0.00664007
0.00570139
0.000187577
1.03479e-006
5.27049e-005
2.97947e-007
0.00236494
3.87315e-005
0.000110199
0.0055117
2.01221e-005
0.00833223
1.31248e-006
6.32929e-005
0.0126246
6.93314e-005
7.3757e-005
2.17132
0.000760878
4.25683e-005
0.000179143
0.000103595
5.74008e-006
0.0016637
0.00153196
2.45602e-005
4.55672e-005
4.34934e-008
0.301967
2.41105e-005
0.0203952
0.00664649
0.0012932
2.41927e-006
0.000107898
4.06727e-005
9.99881e-005
4.51803e-006
0.00491359
0.00166658
3.74841e-010
1.87859e-006
0.000106592
3.75634e-005
0.0191488
0.000834775
2.10256e-005
0.000170129
6.77468e-005
0.000533399
0.00650446
0.000776795
3.52164e-005
0.00336906
5.56998e-005
2.98766e-005
0.000112532
2.9139e-005
0.000174155
0.000925916
8.80954e-005
0.000809805
7.78651e-005
2.17159e-006
1.33658e-005
0.000659517
0.000231486
0.000837153
1.64529e-006
0.00567694
0.00489176
3.14889e-005
9.00711e-005
0.000551039
1.27684e-005
1.35493e-006
0.000271799
4.20995e-005
0.00448696
2.84005e-005
7.39509e-005
9.78349e-006
0.00497021
9.65711e-005
0.000324757
0.00856522
4.5496e-005
1.12067e-005
5.23781e-005
7.85163e-005
3.97614e-005
0.000178955
4.89122e-005
1.75952e-005
0.00628287
5.65402e-006
6.5904e-006
4.98083e-010
1.00002e-005
5.73403e-006
0.00442755
0.00138584
2.29894e-005
4.6944e-005
5.03398e-005
1.62126e-005
3.2878e-006
2.67063e-007
2.91808e-007
5.16329e-005
0.00498706
2.63351e-006
0.000196228
0.0134536
0.000492533
7.22607e-005
7.17091e-006
6.30553e-005
0.00445944
1.36357e-006
0.0643574
0.0104822
2.89683e-005
2.12842e-008
39.1025
0.00141429
4.31258e-005
8.05566e-005
0.00309009
1.36008e-005
1.84818e-005
0.000174482
9.09542e-005
3.61481e-005
9.12865e-006
0.000110544
0.0224304
0.00142084
3.36512e-005
0.00420951
0.000542982
9.50281e-008
4.24761e-005
0.00219154
0.00648196
0.0081674
3.04621e-005
2.46527e-005
0.00259594
5.80409e-005
2.4774e-005
3.17316e-005
0.000514599
0.00400117
5.86063e-006
0.00628688
2.39004e-005
3.02503e-005
0.0051984
2.87952e-005
1.74471e-005
0.000102132
0.00231455
0.000123032
3.97678e-005
0.0140084
0.0820624
0.00682033
0.0306545
1.90286e-006
0.000172081
0.000735663
0.000599479
6.22873e-005
9.47385e-005
1.94273e-005
3.30123e-005
0.0052072
1.46695e-007
0.000148576
0.005273
1.92079e-005
0.028632
0.00747483
0.00501446
478.232
0.00458147
1.41581e-005
3.77445e-005
6.61249e-005
0.00153136
0.000516299
2.66514e-006
4.93808e-007
5.39199e-005
0.000108348
1.74187e-005
8.20626e-005
4.1693e-005
0.0076713
1.25354e-005
3.58427e-005
1.91294e-005
1.51006e-006
4.98597e-005
0.00605444
1.97092e-005
1.19047e-005
0.00271585
0.000200277
5.86147e-005
4.18456e-005
1.50001e-005
5.26317e-005
1.77409e-005
1.06852e-005
0.000128112
8.60794e-006
0.00288949
1.96672
0.0189753
3.76544e-005
1.51548e-005
1.13261e-005
0.000951664
1.56596e-005
7.67017e-005
9.45233e-005
0.000244618
1.07245e-005
0.0018387
0.00464744
3.6107e-005
6.82838e-005
5.80988e-006
5.18582e-009
0.00261303
6.5046e-005
2.76663e-005
167.557
2.87042e-005
4.0864e-005
3.33856e-005
0.0211924
5.30498e-005
2.86821e-005
0.00465136
9.05242e-006
0.000804125
7.23834e-006
0.000499404
0.000195597
0.0227597
3.97762e-005
0.000116372
5.10909e-005
1.01905e-005
0.00514199
2.27836e-005
1.81171e-005
1.94333e-005
0.000399355
3.97884e-005
0.00748003
0.000412336
0.00342964
9.10514e-005
2.0459e-005
9.54613e-006
9.96163e-005
0.00078865
0.00167976
2.46257e-005
0.191625
0.00485509
4.03306e-006
0.000944437
1.1608e-006
0.000115676
0.000328634
0.00215481
7.53313e-006
1.46505e-006
0.00991514
0.00811073
0.0116956
3.05805e-005
0.0107107
1.08761e-006
0.000143889
6.51232e-005
2.72861e-005
9.11535e-005
1.98679e-006
1.89918e-005
6.68281e-005
0.00280254
2.79848e-005
0.000368084
0.00592309
0.000335027
1.31855e-008
3.15174e-005
5.00208e-005
6.36184e-005
0.0830903
0.000177966
0.00292472
0.129322
0.000114464
4.00689e-005
1.01898e-005
0.0194745
8.69381e-006
5.13947e-005
5.90448e-005
2.19779e-005
0.0113861
2.80988e-006
0.000103278
1.93028e-005
0.000428645
0.00308591
7.97399e-005
0.0048041
2.72287e-006
3.97879e-005
0.00257738
0.00322529
0.000131111
0.207097
2.14116e-006
1.32381e-007
7.68302e-006
0.000766662
0.000107739
3.58274e-006
0.000198077
1.63845e-005
0.172919
0.00148509
1.75768e-006
1.96875e-005
3.46863e-006
0.00291001
0.00272052
4.47667e-005
0.00381623
1.02992e-005
2.85565e-005
0.00141532
1.96756e-005
0.000511452
7.5159e-005
4.59981e-005
1.98458e-005
0.000117963
9.93513e-007
0.00104344
5.08938e-005
2.0214e-006
0.000332675
7.58389e-005
0.000469094
2.98786e-005
0.000534721
0.00749361
5.4503e-006
0.0165792
6.1509e-005
1.01518e-005
0.000233724
0.00187056
0.00442235
0.00010553
0.00387158
0.00468115
9.9406e-005
0.000104519
193.899
0.000562447
3.00542e-007
4.13582e-005
0.00383969
0.000554041
2.3484e-005
0.0117505
0.00341483
0.00432276
0.00695599
4.12506e-006
4.90963e-007
1.17311e-006
2.45558e-005
1.04019e-006
0.000347918
0.00533485
5.68816e-006
0.00536137
0.00227698
3.29715e-006
1.15674e-005
0.00476106
0.00311351
0.000109733
3.44525e-005
0.00460762
1.14273e-005
3.97338e-006
4.29276e-005
1.60754e-006
0.331744
9.7419e-006
0.00267864
0.000810414
4.40181e-005
0.00144545
7.26231e-005
6.49636e-006
1.083e-005
21.7489
3.76365e-005
0.00302904
5.25782e-005
1.04894e-005
4.06327e-005
0.0341814
0.025817
0.00152468
3.96787e-005
0.00518871
1.98438e-005
0.000272222
0.000614034
0.00437204
0.000750084
4.50174e-005
3.37914e-005
0.00450737
0.0016578
0.0066067
2.89345e-005
0.0228849
0.000145228
0.00102224
9.44803e-009
8.95952e-006
0.000524725
0.00636465
0.000129918
0.0040623
5.91607e-005
8.50797e-006
6.07799e-005
0.00088661
2.14098e-005
1.4642e-005
1.55466e-005
0.000107328
5.80983e-005
0.00502565
1.1589e-005
6.56938e-005
0.000724701
3.07122e-005
0.000102786
0.00252847
0.00028019
0.000109432
0.00684949
1.02851e-005
5.43062e-005
0.0053618
1.66929e-005
3.56283e-005
0.158477
9.12211e-007
3.53783e-006
0.000109689
0.000775661
9.69984e-005
7.5659e-005
0.00444473
0.000809874
2.6128e-005
0.00289379
9.5121e-006
0.119233
6.96088e-005
2.25445e-005
1.54175e-005
0.00525661
1.81677e-005
0.00609964
0.00593021
9.81604e-007
0.00528873
0.00307122
0.0031874
2.83274e-005
0.00122504
0.000101549
4.89917e-005
2.216e-006
0.000567701
1.19904e-007
4.35709e-007
1.79951e-007
2.46949e-007
0.000560449
6.69748e-007
4.86272e-005
9.83332e-005
0.000499972
4.88897e-006
9.65833e-006
0.00522604
0.00290977
293.3
1.73953e-005
2.01001e-006
5.32017e-005
8.20194e-007
0.00518094
0.00100028
6.51742e-005
0.00531954
9.42614e-005
0.000105517
0.00222826
0.00037546
1.34763e-005
8.39415e-005
1.79414e-005
5.22749e-005
0.000494891
7.21437e-005
8.76268e-005
3.2925e-007
6.80555e-006
9.25578e-006
0.00124304
5.99025e-005
8.39794e-005
0.0101535
4.91836e-005
5.49644e-005
4.75057e-005
2.1367e-007
0.00028969
3.7252e-005
3.47209e-005
1.18517e-005
0.00444359
0.00390076
2.91146e-006
0.0567401
5.16228e-005
0.00118557
0.00211457
2.09748e-005
0.0512609
0.000341911
4.05523e-005
1.62431e-007
0.000314602
0.0014675
0.00442907
0.0103028
1.96847e-005
1.59978e-005
2.2093e-005
0.013276
0.043919
0.00013757
4.22739e-005
4.48879e-005
0.00165541
9.52166e-005
2.12071e-006
0.000863029
1.4986e-005
2.92799e-005
8.0465e-005
3.33812e-006
0.000184772
9.74143e-005
1.51855e-005
0.000172196
4.69025e-005
2.33854e-005
0.00441544
3.5492e-005
0.00658227
0.0462218
0.00508314
0.00567415
1.56602e-005
1.78557e-006
6.9817e-005
0.00311581
2.14136e-005
1.89186e-005
5.48506e-005
2.38433e-005
0.00116634
3.68798e-007
3.87508e-006
6.64848e-005
0.00508654
0.000920295
2.96558e-005
0.00452323
16.8324
8.41764e-006
0.000365745
0.0026307
0.00212534
0.00438975
3.72412e-006
0.0463473
7.75953e-005
4.14326e-005
0.00514288
0.0190646
1.82833e-005
1.41559e-005
7.13215e-006
1.20886e-011
6.91382e-005
0.000132113
2.1338e-006
0.0126606
2.1348e-007
0.00168218
4.63095e-006
4.97836e-005
0.000335233
2.01732e-005
3.28719e-005
0.0127906
8.71166e-005
0.00617756
0.000104115
4.51288e-006
3.98898e-005
2.97933e-005
5.21276e-005
0.000201309
3.66254e-005
0.0050455
0.0159395
5.13788e-005
2.06679e-005
0.00434541
4.54513e-006
0.000223194
9.63851e-005
0.00494313
15.0876
4.41959e-005
0.00253205
2.72605e-005
0.000119514
1.28974e-005
0.00541602
4.14644e-005
6.19009e-006
0.00286785
6.83951e-005
0.00135561
4.05965e-005
7.13313e-005
4.9005e-005
3.08079e-005
0.00724276
3.34358e-005
7.1756e-005
4.61668e-006
6.48763e-006
0.00052358
1.25973e-006
6.09934e-006
6.98376e-006
0.000105419
9.51895e-005
4.84627e-005
0.00155364
3.90909e-005
5.62354e-005
0.000876664
0.0185134
3.51626e-005
7.71839e-005
0.000912018
0.000383358
0.000605001
0.00686253
0.0053285
0.00356822
1.96524e-007
6.41079e-005
3.56978e-011
0.00557596
0.00257227
8.21404e-005
8.22119e-005
0.000303549
0.000130311
0.00204973
1.47561e-005
8.3739e-005
0.00133467
0.000156931
0.00527596
0.000121692
0.0016074
0.00452207
2.44028e-005
3.76339e-005
1.96355e-005
0.000353787
0.00262565
9.16475e-006
1.51268e-005
1.35449e-005
6.67327e-005
0.00014763
0.00443054
1.3979e-005
5.97238e-005
6.72119e-005
1.45381e-006
3.54347e-005
4.01035e-005
1.01293e-005
0.00244035
0.000440193
0.000136976
1.14814e-005
0.00353079
0.00203228
0.000100064
0.00482674
8.72847e-005
5.1482e-005
0.00523182
0.0164835
0.658778
1.65256e-005
0.000615547
0.00230802
6.03848e-005
0.00347752
0.00463698
4.66409e-005
0.00370773
0.00471714
1.80743e-005
1.01297e-006
9.93497e-005
2.06661e-006
0.000683103
0.034936
0.0242632
1.12894e-005
0.00624736
0.000105268
4.60281e-005
0.000950225
4.46063e-005
0.000173001
0.0145613
6.60443e-005
8.61202e-005
0.00975022
1.60929e-005
0.211774
3.53713e-005
0.00122197
0.000100295
3.09655e-005
0.00205983
4.23887e-006
0.000107055
0.00475534
0.00260107
0.000106566
6.41738
1.1156e-007
0.00223818
4.74001e-005
0.00306159
4.95891e-005
0.00126744
0.000245938
5.54316e-005
0.0103538
5.24859e-005
7.17858e-005
0.00676722
1.66634e-005
0.0107613
0.000134775
4.10104e-005
0.00130983
5.72312e-005
4.28682e-005
2.82343e-006
4.16657e-006
0.00946142
0.00455962
0.000109665
0.000105858
6.87202e-005
5.65205e-005
6.48882e-005
4.8517e-005
0.00305231
2.78976e-006
3.16919e-005
0.00384659
1.80249e-005
0.131342
8.8091e-005
3.81823e-005
6.73898e-007
0.0160391
3.58758e-005
1.81561e-005
0.0128547
1.27637e-006
0.000112501
1.20949e-005
6.86508e-005
0.000123049
1.07937e-005
8.02698e-005
0.00391439
0.0133251
3.8179e-005
1.90739e-005
0.00977717
4.67355e-005
8.89766e-006
2.99e-006
2.99146e-006
9.24294e-005
1.17254e-005
0.00117947
0.00260459
8.14622e-006
3.63237e-005
0.0266999
0.000219399
1.27688e-005
0.00678312
0.022782
0.000107562
4.75592e-005
0.0015507
0.0158513
3.45561e-005
0.00107623
0.0245454
7.15205e-005
0.0262519
2.27605e-007
3.67587e-005
7.24919e-007
4.00928e-006
0.000109389
0.000933866
4.7033e-006
4.03945e-005
0.000125467
0.000509673
3.45242e-005
0.00112062
6.33007e-005
9.41566e-006
2.87489e-005
3.87196e-007
2.61989e-005
3.04085e-005
3.01083e-006
2.99335e-005
0.0017668
0.00324616
0.00541639
1.89639e-005
5.3455e-006
0.000882964
0.000349843
0.00415867
0.000665537
6.4686e-005
6.76182e-005
1.67698e-005
0.000805888
0.000979408
0.000371073
6.82725e-005
1.34465e-007
1.73836e-005
5.31848e-005
0.00330552
1.75802e-005
0.00183993
7.92432e-005
0.00975342
3.70027e-005
2.32958e-005
1.89383e-005
0.000276932
7.23224e-005
6.02103e-005
0.179554
4.68792e-005
1.01844e-005
4.48855e-006
2.28545e-005
9.82214e-006
0.000709727
1.48297e-005
0.0133808
0.0117084
0.0100712
2.33473e-006
0.00174981
1.68332e-006
1.14161e-006
3.59687e-005
7.51675e-007
5.12186e-005
4.1525e-005
5.1249e-005
1.86575e-005
7.1569e-005
5.46353e-006
3.10679e-005
2.49893e-006
0.0213627
1.8679e-005
0.000100718
1.92044e-006
0.0013717
5.72056e-005
2.47604e-005
0.0124656
0.0284183
4.99305e-007
0.0129529
5.66375e-006
2.41567e-005
0.0125304
4.43334e-005
6.78967e-005
2.57373e-005
2.8564e-005
0.00575594
2.03528e-005
8.15748e-005
0.000199391
8.45361e-005
8.96803e-007
3.40443e-005
5.93219e-005
5.76562e-005
0.00674423
9.819e-005
4.15732e-005
0.00221853
0.011952
3.91257e-005
9.59687e-006
8.53552e-005
0.00159215
0.00563634
2.04399e-006
0.00104947
2.23611e-006
1.42347e-005
0.00108715
0.000173261
0.000101861
8.25403e-007
1.26819e-005
8.55466e-006
4.20702e-005
0.00031354
0.00125093
0.00426129
3.71545e-005
9.93045e-006
5.73782e-005
0.00138695
4.82282e-005
1.99125
0.000352475
2.9064e-006
3.66033e-005
6.2655e-006
3.06706e-007
1.35238e-005
1.316e-006
9.11209e-006
0.00526545
1.40837e-005
0.000128056
0.108951
0.00422409
0.00448349
0.0333631
0.0044075
1.98414e-005
2.65249e-005
1.30662e-005
5.93141e-006
0.00200111
1.71303e-006
0.00509168
6.03442e-005
3.85601e-005
0.00121386
8.84171e-005
0.000113882
4.8572e-005
0.0130967
0.00452057
5.96969e-005
2.3692e-005
5.35442e-005
8.26196e-006
3.34232e-011
0.0013701
3.03957e-006
1.88081e-011
0.0140825
9.30546e-006
1.00318e-005
8.32757e-005
0.00134255
3.55633e-005
5.90953e-005
1.36557e-005
6.15537e-005
3.38796e-006
2.51039e-005
0.000303021
4.65684e-005
2.41539e-005
0.00265385
0.00091565
1.08386e-006
3.96646e-005
3.26562e-006
0.00341554
0.00148447
5.58837e-005
0.000756679
0.00663074