/*--------------------------------*- C++ -*----------------------------------*\
| =========                 |                                                 |
| \\      /  F ield         | OpenFOAM: The Open Source CFD Toolbox           |
|  \\    /   O peration     | Version:  dev                                   |
|   \\  /    A nd           | Web:      www.OpenFOAM.org                      |
|    \\/     M anipulation  |                                                 |
|*---------------------------------------------------------------------------*|
|* OpenFOAM for Windows 18.02 (v1)                                           *|
|* Built by CFD Support, www.cfdsupport.com (based on Symscape).             *|
\*---------------------------------------------------------------------------*/
FoamFile
{
    version     2.0;
    format      ascii;
    class       volScalarField;
    location    "1e-005";
    object      epsilon;
}
// * * * * * * * * * * * * * * * * * * * * * * * * * * * * * * * * * * * * * //

dimensions      [0 2 -3 0 0 0 0];

internalField   nonuniform List<scalar> 
23640
(
2.29524e+009
1.3937e+010
1.39027e+009
1.15614e+010
4.2816e+009
2.70152e+010
6.40313e+009
3.24236e+009
6.08988e+010
3.06832e+011
1.03505e+010
1.80377e+010
3.06568e+009
3.50821e+009
1.51788e+011
2.44447e+010
1.44493e+009
6.30153e+010
2.28711e+010
5.48768e+010
1.33684e+010
1.95199e+009
1.37388e+010
2.22296e+010
2.97948e+009
8.95942e+009
8.06118e+010
5.3366e+010
7.94399e+008
2.62835e+009
7.04513e+009
3.469e+009
1.33141e+010
3.5061e+010
5.7427e+010
2.13114e+011
1.40655e+009
5.94141e+009
2.7015e+009
1.36282e+010
2.52811e+010
5.86509e+010
3.19234e+009
2.1497e+009
1.07661e+010
1.40956e+011
1.57134e+009
9.26994e+009
2.90572e+011
3.36275e+009
8.7056e+008
5.0471e+010
2.64023e+011
8.48132e+008
1.13918e+010
9.98632e+011
5.48759e+010
1.79042e+010
1.73399e+009
2.02475e+010
7.18431e+009
9.50219e+010
8.12734e+009
4.51358e+010
3.19871e+009
4.60365e+010
1.58402e+010
3.16098e+009
8.76957e+010
3.23344e+009
1.52144e+010
3.48158e+010
2.46049e+010
9.02201e+008
2.44437e+010
1.24997e+010
1.26832e+012
3.72454e+009
2.21496e+010
8.12813e+009
1.4688e+011
1.3181e+011
1.80043e+009
1.76612e+009
3.0947e+009
5.29586e+011
5.20159e+010
2.15741e+010
3.57082e+010
1.37975e+011
4.05383e+009
1.71622e+010
1.20485e+011
2.28325e+010
4.86027e+010
3.33407e+009
4.22722e+010
5.41194e+011
1.30714e+010
1.55025e+011
1.20928e+011
8.2685e+008
3.2384e+010
2.01426e+009
5.20551e+010
5.97595e+009
2.3175e+010
6.69988e+008
1.98521e+010
1.65249e+010
6.99277e+009
2.39238e+010
2.04601e+010
2.45156e+010
7.93999e+011
5.6921e+009
1.6651e+011
6.83566e+009
2.14159e+009
3.02525e+009
4.44704e+010
3.85431e+009
4.69205e+011
3.44766e+009
8.84724e+010
1.48675e+010
6.72725e+008
2.46938e+011
2.64643e+010
2.22559e+010
5.26932e+010
1.02421e+011
3.28602e+009
8.81269e+010
2.15037e+009
2.50056e+010
1.12601e+010
3.07765e+009
1.01389e+010
3.72941e+010
1.52509e+010
5.62008e+010
2.64631e+010
1.02827e+010
2.8458e+010
8.94571e+009
9.44234e+009
1.08058e+010
4.17206e+009
8.91137e+010
3.33284e+009
2.28321e+010
2.09851e+009
8.82799e+009
7.6686e+010
6.16675e+009
6.47899e+009
2.73247e+010
1.28551e+010
8.10117e+010
1.32388e+011
3.45572e+011
2.21909e+011
7.31839e+009
5.5242e+009
6.02867e+009
1.7278e+010
2.76012e+011
2.12077e+010
9.93594e+010
8.86465e+009
7.62053e+011
2.38018e+010
1.88511e+010
1.06509e+010
1.12515e+010
2.25638e+010
7.29341e+011
8.13824e+009
2.81552e+009
1.06283e+010
3.23216e+011
3.05115e+009
5.24206e+010
8.87437e+008
9.50416e+010
8.53781e+010
8.286e+010
2.63466e+010
5.51749e+010
6.81763e+010
9.34866e+009
5.07389e+009
2.1659e+009
6.93126e+008
1.54819e+010
5.33586e+010
5.50138e+010
2.93398e+011
1.33362e+011
1.54883e+010
2.42993e+009
4.90013e+009
5.76144e+010
1.9562e+010
3.03143e+009
2.90024e+011
1.36548e+010
5.12871e+011
1.51065e+010
4.05815e+009
3.14243e+009
2.91103e+009
3.11632e+009
2.30269e+010
1.8097e+010
9.84782e+009
5.39111e+010
8.19269e+009
2.89582e+009
2.9772e+009
9.72389e+009
1.53714e+010
1.87152e+010
2.34766e+010
1.90308e+010
1.17841e+010
3.78592e+009
2.09021e+009
4.00525e+009
2.34744e+009
6.7514e+008
4.79669e+010
3.32581e+009
2.63653e+010
1.23799e+011
1.44623e+010
1.88277e+010
4.1314e+009
2.17886e+011
1.23883e+011
7.72525e+011
2.61268e+010
5.52081e+010
1.09481e+010
7.3196e+008
2.95984e+009
5.61528e+011
8.07698e+009
1.8567e+010
1.87576e+010
1.1496e+010
1.52468e+009
1.1103e+010
2.10456e+009
1.30156e+010
1.66522e+009
6.86014e+008
2.01924e+010
2.28481e+010
1.21491e+010
5.48002e+009
1.07092e+011
1.84086e+010
1.75535e+009
3.21871e+009
8.26946e+010
1.15671e+010
2.2018e+009
5.49972e+010
9.77173e+010
6.36584e+008
5.06429e+010
2.37188e+010
2.75381e+011
3.31215e+010
9.34701e+008
3.96974e+009
4.26952e+010
1.83414e+010
1.51973e+010
2.54262e+009
1.07189e+011
9.74675e+009
3.1314e+010
1.06703e+011
5.05138e+009
8.12953e+010
6.99098e+009
9.86458e+009
4.78764e+009
8.77059e+008
1.84576e+010
7.46274e+009
1.02836e+010
3.43305e+009
2.13955e+010
9.33729e+008
1.09148e+010
2.29075e+009
2.83357e+011
4.3177e+010
3.35164e+009
1.56896e+010
1.18222e+010
2.79434e+009
1.07238e+011
1.23657e+011
1.18159e+010
2.65129e+010
5.74456e+008
1.9249e+011
1.04322e+010
2.15575e+010
1.60751e+010
8.44464e+010
7.57823e+010
1.46524e+009
4.69686e+010
2.50222e+010
2.40665e+009
3.24662e+010
5.89019e+010
5.173e+010
2.4836e+009
2.42999e+011
1.44326e+011
3.46895e+009
2.53133e+009
1.366e+009
1.2757e+011
3.30186e+009
5.4042e+010
6.83932e+010
8.7114e+009
1.37185e+010
3.07783e+011
8.46966e+010
3.35884e+009
1.07205e+010
6.85649e+011
3.80388e+010
7.46154e+010
4.40765e+009
9.44503e+009
6.86842e+010
1.0108e+011
1.66422e+010
1.87363e+010
4.60081e+010
2.20508e+010
2.34456e+011
6.91078e+008
7.05089e+009
5.49025e+010
5.47517e+009
3.49104e+009
5.21534e+009
8.21772e+009
9.64486e+009
8.38567e+010
1.22022e+010
3.80606e+010
2.49256e+009
1.88646e+010
7.86347e+008
3.2987e+009
1.28416e+011
2.24594e+010
2.87185e+009
4.37042e+011
7.05644e+010
5.77095e+008
1.56859e+010
8.65587e+010
6.81111e+008
3.09785e+010
1.7006e+009
3.59915e+009
7.92032e+010
2.21071e+010
6.98735e+010
1.63047e+010
3.76426e+010
1.95104e+010
4.76554e+009
1.75603e+011
6.0923e+009
1.56707e+010
5.30122e+008
6.02053e+010
3.96577e+010
8.70608e+011
2.56027e+011
9.86341e+010
1.50077e+010
4.44787e+009
4.25335e+009
1.42138e+009
1.13606e+011
2.89647e+009
5.12511e+010
7.24672e+010
7.09307e+008
3.32285e+009
1.09729e+010
1.73877e+010
8.1245e+008
1.62286e+011
1.347e+010
5.04147e+010
8.07587e+009
1.43599e+010
8.41144e+010
9.37745e+009
2.35059e+010
1.08359e+011
2.38016e+009
8.85637e+010
4.11028e+010
1.91655e+010
5.95882e+010
1.09955e+010
5.24531e+010
3.67511e+011
2.48804e+009
4.11582e+009
4.3101e+011
1.20451e+010
3.04201e+009
1.56775e+009
1.03819e+010
1.43054e+010
1.4347e+010
6.63135e+010
9.32901e+009
4.101e+011
1.61714e+011
2.87242e+011
3.96561e+010
6.95756e+010
8.53689e+009
2.62779e+011
3.20103e+011
7.22425e+010
1.23257e+010
1.09577e+011
1.07437e+011
1.33129e+010
1.31222e+011
3.10345e+006
1.53477e+010
1.09947e+010
3.82749e+010
1.14578e+011
3.96145e+009
6.33238e+009
1.03404e+011
2.658e+010
1.6077e+011
8.63356e+010
3.03493e+010
2.40374e+010
3.87545e+007
1.67481e+011
3.01715e+009
1.84319e+011
1.13293e+012
1.50928e+011
6.91731e+010
4.90156e+010
4.04169e+009
1.17505e+010
1.30065e+009
2.32588e+009
1.09126e+011
3.41651e+009
1.97382e+008
1.83301e+011
1.79171e+010
9.3388e+009
1.27088e+009
3.75169e+010
3.13364e+011
1.04135e+011
5.36754e+011
1.53367e+010
3.18046e+009
6.86449e+009
1.3591e+009
7.82028e+010
2.86785e+010
2.88677e+009
2.09725e+010
3.5515e+009
1.07715e+010
1.14521e+011
1.51032e+011
6.9116e+011
4.24017e+009
3.20853e+009
8.26024e+009
1.9081e+009
1.08604e+010
3.90666e+009
2.01391e+009
1.02972e+011
6.08947e+008
8.57721e+008
2.40161e+009
1.27123e+011
2.32068e+009
3.0424e+011
4.70779e+011
1.4908e+010
2.4072e+010
2.29011e+010
7.21332e+008
5.34393e+010
9.19286e+009
5.71865e+010
7.01512e+010
1.63315e+006
1.75618e+011
6.89496e+009
2.12043e+010
1.47846e+010
8.54267e+010
2.15562e+010
1.61286e+009
1.24529e+010
2.19541e+010
1.82213e+011
3.74126e+010
1.11274e+012
2.47217e+009
2.61923e+011
1.03852e+011
6.67643e+008
5.41676e+010
3.94535e+009
3.9512e+009
3.86713e+009
1.0732e+010
9.79058e+008
3.19188e+009
1.59422e+011
2.74467e+010
5.16928e+009
5.05026e+009
2.51504e+011
3.43854e+009
1.55533e+012
2.67185e+009
2.85815e+011
2.57082e+009
4.25036e+009
7.25645e+011
1.13181e+010
1.00766e+010
2.9226e+009
1.12877e+010
1.30139e+010
1.3667e+011
3.30095e+010
1.4286e+010
2.26465e+010
1.653e+010
7.96034e+011
1.9949e+011
5.35022e+006
3.76224e+009
3.44184e+009
6.41276e+009
6.55607e+009
2.26069e+010
4.51352e+011
5.1651e+011
6.82728e+010
1.3394e+009
9.81089e+009
1.47502e+010
5.48866e+009
8.75555e+010
2.0995e+010
3.07884e+010
2.99908e+009
6.63087e+010
8.74525e+009
1.63622e+010
8.11e+009
4.1118e+009
2.40608e+010
5.12139e+010
1.91756e+009
4.57314e+010
4.99916e+010
9.22156e+010
4.09682e+009
1.54709e+011
9.43586e+009
1.30338e+010
2.22439e+010
1.95505e+011
2.77648e+009
3.23471e+011
1.24108e+011
2.23251e+009
2.22753e+010
1.5088e+010
3.29588e+009
3.27685e+009
1.70837e+010
4.20777e+009
3.10113e+010
1.20253e+011
7.48988e+011
1.56125e+010
9.59077e+008
4.05718e+009
1.99616e+010
2.18456e+010
2.42349e+010
8.12769e+009
3.37128e+009
5.00539e+010
1.10687e+010
1.51211e+010
3.49843e+009
2.52119e+011
7.76938e+008
1.04042e+010
2.52945e+009
2.80802e+009
1.80012e+009
1.21502e+010
3.2791e+009
1.17352e+010
4.12381e+009
1.56956e+011
5.21492e+010
4.82864e+011
1.15083e+010
5.1279e+009
3.43857e+011
1.45098e+010
1.54842e+010
9.42706e+010
5.01058e+009
1.70445e+010
1.51763e+011
4.91042e+009
3.1426e+010
3.84752e+009
5.1932e+010
4.36639e+010
6.75809e+011
1.50877e+010
1.90882e+009
3.41973e+009
3.65634e+010
1.56696e+011
5.84014e+009
2.74414e+011
3.24557e+009
4.14685e+009
2.69521e+009
6.41301e+009
2.83291e+010
2.26487e+010
3.88058e+009
1.37859e+010
1.22038e+010
1.43737e+011
4.08284e+010
9.56648e+008
2.52189e+009
3.70156e+009
1.39949e+009
8.22444e+009
2.09234e+010
1.37012e+010
4.45258e+009
1.83053e+009
2.5787e+010
4.07117e+009
1.4695e+010
3.24978e+010
1.62206e+011
4.09487e+009
7.67352e+008
3.04934e+011
1.37326e+011
3.29761e+009
7.42057e+010
1.4495e+009
6.56872e+010
2.51257e+010
1.28363e+010
1.96294e+010
1.48213e+010
4.23055e+010
4.09824e+010
2.34231e+010
3.11051e+009
4.0234e+010
1.75831e+010
8.30376e+010
1.20105e+010
1.20418e+011
2.21421e+010
1.45397e+010
4.9898e+011
3.6359e+009
2.26891e+009
2.1536e+011
4.97025e+010
8.25034e+009
1.46372e+010
2.47986e+011
8.03499e+010
1.07295e+011
8.97237e+010
2.37265e+009
7.06962e+010
5.7697e+008
1.13969e+009
7.41964e+008
3.87681e+010
1.04679e+010
1.15101e+010
4.90277e+009
7.8093e+009
1.37038e+010
6.33174e+009
1.82381e+010
4.91756e+011
2.4078e+010
7.80193e+009
1.29297e+010
2.94138e+009
2.5956e+010
7.80477e+009
4.13821e+011
2.09699e+009
1.52994e+011
4.69629e+009
8.79042e+010
7.34251e+008
2.97699e+009
7.65581e+010
4.01054e+009
6.36769e+009
2.48002e+009
5.37544e+009
1.90917e+008
7.77512e+010
6.49919e+008
5.4927e+010
1.56893e+010
6.71754e+009
1.7701e+009
1.41985e+011
7.54381e+009
1.51638e+010
5.23782e+011
9.24843e+009
3.52459e+010
2.87539e+010
6.90084e+010
7.90561e+010
2.90624e+010
1.57085e+011
2.178e+010
3.12285e+010
1.9054e+009
1.60276e+010
1.14761e+010
5.95368e+010
4.19015e+011
6.52312e+010
3.30174e+009
1.84467e+009
4.62058e+011
4.4874e+011
3.05177e+010
9.433e+010
3.28284e+009
5.72516e+010
2.05533e+010
1.39954e+009
1.97765e+011
2.9091e+010
3.63594e+009
4.15048e+009
1.28495e+010
3.93272e+009
8.34515e+009
1.86363e+009
1.63641e+010
3.98085e+010
6.74173e+010
3.51065e+009
7.03904e+009
1.18396e+011
3.928e+010
8.00497e+009
2.09449e+010
8.89252e+009
2.79091e+009
2.92588e+011
2.3115e+010
3.77644e+009
1.86685e+010
3.3057e+011
8.02713e+010
6.02156e+009
2.14712e+011
1.49726e+011
2.1903e+010
1.25495e+010
1.43216e+012
1.28916e+011
5.35372e+010
2.15646e+011
1.13962e+010
5.41418e+010
4.43759e+009
8.44628e+010
1.39764e+011
2.65275e+009
7.67877e+010
3.58609e+009
4.04956e+010
2.10576e+010
9.81533e+009
2.94526e+010
6.9743e+010
2.17737e+009
2.14838e+009
4.00791e+010
5.75412e+010
1.12264e+010
3.16149e+010
6.37017e+009
4.54922e+009
8.91954e+009
2.73283e+009
1.45627e+010
3.99024e+009
2.47166e+009
4.62618e+009
1.4756e+011
2.83186e+009
2.62193e+010
4.89056e+006
1.09645e+010
1.10366e+011
4.42533e+010
1.47139e+011
1.7981e+011
2.24188e+009
3.96627e+009
7.36112e+010
8.81442e+010
3.83322e+009
1.13988e+010
5.22334e+009
9.01435e+009
1.79821e+011
2.74612e+011
1.24255e+010
8.31062e+009
1.14331e+010
4.32654e+008
7.19356e+008
1.20253e+011
4.41753e+011
2.3217e+009
5.02171e+008
6.12218e+010
2.33389e+009
4.079e+010
6.70655e+009
4.22252e+011
6.99292e+010
8.14761e+009
5.33182e+010
1.44784e+010
3.3763e+009
1.95767e+009
8.85158e+010
2.32788e+010
4.55392e+011
1.51441e+010
7.29517e+010
6.12727e+011
3.7986e+009
1.79203e+009
2.05183e+010
1.62962e+010
3.43554e+011
3.30621e+009
6.79866e+009
1.12362e+011
1.96973e+009
1.04978e+011
3.32927e+009
3.25248e+010
6.28208e+009
2.96897e+011
5.62766e+008
3.36067e+011
8.43225e+010
8.58722e+010
3.2042e+009
8.5309e+010
1.58197e+010
1.82227e+010
8.00118e+009
4.70515e+010
3.69881e+010
2.67796e+009
1.85961e+010
3.33854e+009
1.99986e+011
7.55923e+008
1.18078e+010
2.88187e+011
5.82126e+010
4.12426e+010
2.33004e+010
1.7436e+009
3.8657e+010
1.16915e+010
1.2116e+011
2.04029e+011
3.45558e+009
1.30839e+010
7.9263e+009
8.10865e+011
2.74064e+009
3.22297e+011
2.86289e+010
7.98209e+009
1.41823e+011
1.02259e+010
1.1185e+011
5.73913e+008
4.9074e+009
2.05538e+010
9.83894e+009
6.15676e+009
2.36984e+011
4.90165e+009
2.37942e+009
2.2373e+010
2.14845e+009
7.83998e+009
2.51794e+009
4.02954e+010
3.87787e+009
1.93738e+010
2.44757e+009
2.26236e+010
3.05172e+009
1.03774e+010
3.71907e+010
2.05608e+009
8.80993e+009
1.27875e+010
2.12667e+009
9.47001e+009
1.24798e+010
3.08174e+011
1.99979e+009
3.04053e+010
2.36812e+011
2.70043e+010
8.46829e+009
7.63452e+011
6.13068e+009
2.03009e+010
1.11096e+010
9.14277e+009
2.10244e+010
2.50263e+009
2.00765e+009
1.38748e+010
2.40634e+010
2.72339e+009
1.44041e+010
3.53685e+009
3.12999e+010
1.18593e+010
9.52899e+009
3.37391e+010
1.84973e+009
2.29738e+010
6.40294e+010
6.14297e+010
2.524e+009
5.95932e+010
5.69113e+010
1.268e+011
9.82199e+010
1.9357e+011
6.75909e+008
6.27429e+011
5.38911e+011
2.54126e+009
4.03399e+009
5.10432e+009
6.10365e+009
1.93144e+010
7.48277e+010
3.20082e+009
6.49141e+009
4.09895e+010
1.34051e+012
2.0385e+010
7.53852e+009
7.51774e+008
1.33688e+010
6.31034e+010
2.58322e+009
5.89547e+009
1.88582e+010
1.21409e+011
9.9361e+009
3.08959e+010
7.21022e+010
3.28266e+009
4.18404e+010
3.27563e+009
4.8092e+009
2.1896e+009
1.23844e+011
6.28467e+009
1.72371e+009
3.12481e+009
9.87717e+009
1.53232e+011
6.14979e+009
2.79949e+009
1.64455e+011
5.21358e+010
1.12691e+011
8.60254e+009
4.39265e+010
3.01084e+009
1.57651e+010
1.08925e+010
1.80244e+010
2.04696e+010
3.74642e+009
5.67668e+010
4.12428e+009
9.88994e+011
2.84354e+010
2.01991e+010
2.59167e+010
2.62133e+009
8.12775e+009
9.90037e+009
2.72739e+009
3.14812e+009
1.04155e+011
1.14705e+011
4.54875e+010
1.42421e+010
5.87861e+008
2.98614e+011
5.41438e+011
4.05399e+011
3.36635e+009
8.85699e+010
7.32101e+009
5.01115e+009
1.33297e+010
2.09362e+009
2.35251e+011
5.39041e+010
8.75535e+010
9.54832e+011
1.61877e+011
1.45671e+011
2.06565e+010
3.6921e+010
2.68301e+010
5.14629e+010
4.0426e+009
1.80702e+009
2.57974e+011
8.07853e+011
2.13358e+009
2.06809e+009
1.20364e+009
1.7315e+011
7.91475e+009
2.20536e+010
1.98552e+009
2.15545e+009
1.01509e+010
9.42635e+008
1.02012e+010
1.27871e+010
2.73382e+009
8.17489e+009
1.12094e+011
2.92239e+010
9.8859e+009
6.10349e+009
5.97766e+009
4.02399e+009
1.06326e+010
1.37793e+011
7.70323e+010
4.15257e+011
5.53021e+010
1.72928e+010
3.4913e+009
2.38853e+009
6.94717e+008
9.85883e+008
2.72959e+009
4.07302e+009
3.44321e+010
4.02387e+009
1.00646e+010
2.17658e+010
4.48805e+011
4.30362e+011
1.17004e+010
5.92354e+009
6.34119e+008
2.58771e+009
3.99988e+009
2.59375e+011
7.70828e+008
4.19983e+010
4.82548e+011
6.09457e+009
9.25375e+009
5.41154e+009
3.8906e+011
1.01048e+010
3.58463e+010
1.88463e+009
8.63376e+010
6.9384e+010
4.9986e+009
3.50272e+009
3.21727e+009
3.69878e+010
6.55703e+008
1.27504e+011
2.31297e+011
5.11972e+010
1.1932e+010
3.30883e+010
3.32055e+011
4.47053e+010
4.2975e+009
2.01955e+011
7.67749e+010
2.78236e+010
3.60129e+010
3.61391e+010
6.75759e+010
5.55903e+010
4.654e+011
8.10133e+010
1.08334e+012
2.84447e+011
1.44541e+011
3.81353e+009
2.11242e+010
8.32239e+010
3.08908e+009
2.10235e+009
2.22496e+010
1.86738e+010
6.11963e+008
1.34813e+009
1.67521e+010
3.70454e+011
5.50462e+009
2.35736e+010
1.61366e+009
3.96617e+010
3.39913e+009
7.8821e+009
3.86021e+009
5.15678e+009
1.37647e+010
8.94429e+008
4.16387e+006
2.98119e+009
9.36586e+009
3.59548e+009
6.36107e+010
9.2589e+009
1.88748e+010
8.25517e+008
5.72348e+010
4.26528e+011
1.79722e+010
1.16705e+012
9.18326e+009
5.02599e+009
1.97689e+010
1.03517e+010
1.03365e+010
2.57045e+009
1.12393e+010
7.00598e+009
6.30974e+010
1.95413e+009
1.56904e+009
3.94524e+009
5.10419e+011
3.50516e+009
6.96477e+010
1.01351e+010
2.23623e+010
7.93176e+009
1.49761e+011
1.13086e+010
7.45731e+010
1.67162e+011
5.57134e+009
2.96981e+010
3.62493e+009
7.97465e+008
7.7413e+009
1.73062e+010
6.38167e+009
2.08476e+009
6.51904e+009
1.961e+010
7.85792e+010
2.19202e+010
2.54669e+010
4.16073e+010
3.4178e+009
8.39485e+009
5.52162e+010
7.75502e+009
5.99292e+011
4.2823e+011
2.9362e+011
6.12836e+010
6.58845e+008
3.59978e+011
6.28275e+010
6.45202e+009
2.72103e+009
4.61479e+009
7.71855e+010
9.09539e+009
3.01638e+010
3.47442e+010
6.82953e+010
1.08915e+011
3.98292e+009
1.07183e+010
2.37364e+009
6.52958e+008
4.70518e+009
4.22106e+010
2.4334e+009
8.52322e+011
2.22736e+009
6.57397e+009
8.88428e+009
8.39127e+010
8.68301e+009
4.0304e+010
3.32466e+009
4.26402e+010
5.81054e+010
2.6657e+010
1.17e+010
1.70793e+011
2.31402e+009
1.19926e+009
6.68063e+009
2.37178e+011
8.26291e+010
2.3016e+010
1.02056e+011
3.08255e+011
3.4562e+009
9.18374e+011
8.55873e+010
2.32887e+010
4.5282e+009
6.68755e+009
1.24778e+010
1.34357e+010
5.78792e+009
3.91328e+011
6.73781e+009
4.58603e+009
4.01911e+009
1.9002e+006
1.53625e+011
2.14045e+010
5.41422e+010
2.28859e+010
1.01159e+010
9.02183e+009
5.08857e+009
3.46739e+011
5.09413e+010
1.56467e+010
6.05241e+009
1.0779e+010
1.22729e+009
5.52167e+010
1.76974e+009
3.39123e+009
7.13735e+010
6.04258e+009
1.08363e+011
6.9889e+008
1.10098e+010
7.46173e+011
7.24227e+010
4.34044e+009
1.84963e+010
1.45203e+010
2.31431e+010
1.80725e+010
5.15578e+009
1.83767e+011
1.84327e+010
8.24173e+009
8.79102e+009
1.79806e+009
7.23818e+008
2.83974e+009
1.34748e+009
3.78183e+009
5.40181e+010
9.11212e+010
1.15497e+010
3.07617e+011
9.53233e+009
3.39406e+011
3.59361e+010
6.25448e+009
7.59987e+010
4.00866e+010
6.94548e+008
1.51681e+010
5.19114e+010
2.77634e+011
1.03165e+011
6.14838e+011
2.46212e+010
5.02353e+009
6.98285e+009
3.78789e+010
3.36732e+009
5.25166e+009
4.17726e+009
1.23231e+010
4.62182e+009
3.6521e+009
7.91168e+008
1.26515e+010
2.1118e+010
1.92688e+011
3.66351e+011
2.29437e+010
1.15073e+010
4.19984e+009
1.73768e+009
8.02199e+009
9.10083e+009
7.63433e+009
1.10013e+011
1.3954e+011
4.45956e+011
5.76411e+010
1.03809e+011
8.66206e+009
8.54364e+010
1.09272e+010
6.49073e+009
2.53164e+010
2.08869e+011
3.03013e+011
1.04563e+010
6.60008e+010
8.18042e+010
2.8614e+010
1.43129e+011
9.63778e+010
1.82978e+009
3.79504e+009
3.16359e+010
1.08805e+011
2.73663e+010
6.02755e+008
8.676e+009
4.96674e+010
1.51332e+011
1.39618e+010
2.8372e+009
3.63018e+011
2.57134e+009
2.89174e+010
1.7951e+010
6.55592e+009
1.15502e+010
7.79213e+010
4.14681e+009
9.27608e+009
4.00177e+010
1.31975e+011
9.34043e+009
1.81388e+010
5.24228e+009
6.45643e+010
5.90995e+010
1.6164e+010
6.74944e+010
1.89357e+009
1.19686e+010
4.42477e+009
3.53288e+011
9.88656e+008
2.15649e+009
4.92645e+011
9.1834e+008
1.78984e+010
5.63626e+009
4.52841e+009
2.50088e+009
1.65352e+011
8.63554e+009
2.66464e+009
1.84224e+009
1.60038e+009
3.24377e+009
1.49378e+010
5.22643e+011
2.59534e+009
3.39659e+010
3.76599e+009
4.25143e+010
3.47433e+009
1.58869e+011
5.72909e+010
1.29987e+012
1.11709e+010
3.96091e+010
1.08225e+010
1.58934e+009
4.21965e+007
3.32427e+009
3.47483e+010
2.51944e+011
8.87605e+009
3.80308e+009
1.59847e+011
5.77579e+010
1.38152e+010
1.801e+010
3.53963e+011
9.62382e+010
2.00913e+010
2.80234e+010
1.34374e+010
5.58379e+010
6.21967e+010
1.95603e+009
7.89415e+010
4.01774e+010
8.37102e+009
8.12272e+009
1.67348e+011
7.44021e+009
7.50226e+010
2.90411e+010
1.85944e+011
1.02791e+010
6.57201e+010
1.16383e+010
9.05743e+008
4.07638e+009
6.90523e+009
1.02853e+010
4.41928e+010
1.07469e+010
1.95774e+009
1.29983e+010
1.15911e+010
2.52448e+011
1.53599e+010
8.49349e+009
9.95828e+009
1.00875e+010
2.20128e+010
1.35739e+009
6.64378e+010
3.06988e+010
2.39369e+010
4.03763e+010
9.85766e+010
6.24281e+009
3.4053e+009
4.05219e+010
2.73048e+011
2.2974e+011
2.12445e+010
6.18187e+009
1.11846e+010
3.23038e+010
1.17261e+010
3.4448e+006
4.98656e+009
4.27497e+009
3.40294e+010
4.12515e+010
1.50576e+011
3.95786e+011
8.39866e+008
1.84221e+009
2.38966e+011
7.8166e+009
1.31158e+010
3.73117e+011
1.98106e+010
8.55738e+009
3.03678e+009
1.88317e+010
6.35165e+009
6.4061e+008
1.86255e+011
9.02968e+009
5.68058e+009
1.94811e+009
8.31075e+010
3.7564e+010
4.53526e+010
2.2178e+009
3.82498e+009
1.93523e+011
7.25274e+009
1.84533e+009
6.9536e+010
6.31393e+011
1.03893e+010
7.07295e+008
1.28724e+010
1.24474e+010
1.94578e+011
3.00766e+011
1.62839e+011
8.47777e+009
1.8809e+011
7.12645e+009
5.87124e+010
3.94659e+009
1.09547e+010
2.90004e+010
3.66703e+011
4.4592e+010
9.37169e+008
1.5778e+009
1.47339e+010
3.13777e+010
1.24792e+010
1.00162e+007
9.50983e+009
1.29599e+010
1.56221e+011
1.53454e+010
4.49647e+009
1.38118e+010
2.798e+010
3.05736e+009
1.05844e+011
2.32308e+009
4.01649e+010
6.05962e+010
1.07269e+010
2.89279e+010
3.51143e+010
9.28852e+010
3.01957e+009
4.65873e+010
1.9707e+011
3.64605e+009
1.45821e+011
6.81865e+010
3.5033e+010
8.27087e+009
6.98271e+010
4.73522e+010
1.12605e+010
2.54079e+011
3.96847e+009
9.83775e+009
8.29629e+010
5.92659e+009
1.84717e+011
6.02593e+009
4.85903e+010
5.08318e+011
1.40188e+010
2.04092e+009
3.95801e+011
2.534e+009
9.97522e+010
2.38065e+009
4.92247e+011
8.50461e+009
8.43618e+009
6.37496e+009
4.86006e+010
8.10865e+009
3.86838e+009
5.44341e+010
2.17369e+010
1.11594e+010
8.86007e+010
8.10919e+008
5.97683e+009
3.0359e+010
1.44476e+010
7.82821e+010
8.8701e+010
7.93051e+009
8.3333e+010
4.77958e+009
4.98675e+010
2.49719e+009
7.26286e+010
1.56207e+010
9.67466e+010
2.07906e+010
8.6179e+009
1.13506e+010
1.58973e+010
3.50049e+009
9.3167e+009
1.22391e+009
2.79992e+009
2.63388e+010
6.71047e+009
8.14268e+009
6.20855e+008
4.92117e+010
1.87204e+011
4.84871e+010
9.36365e+009
8.79822e+010
9.54132e+009
7.47067e+008
2.25474e+009
1.09878e+010
3.34013e+010
5.69667e+010
5.65505e+009
1.15403e+009
2.14899e+009
2.01413e+009
9.45607e+010
9.96848e+010
2.49117e+009
9.17165e+010
1.76008e+009
6.74748e+009
3.66257e+009
2.79812e+009
2.34599e+009
2.61003e+009
4.69551e+011
4.0794e+011
2.25092e+009
2.51945e+010
3.7423e+009
1.60643e+010
1.30907e+010
1.31371e+010
8.82513e+010
3.27114e+010
4.89116e+010
5.82459e+009
1.11209e+010
2.99886e+009
2.69652e+010
3.18161e+009
6.61667e+008
6.13469e+010
4.89159e+009
3.04236e+009
1.68941e+011
3.96309e+009
8.25193e+009
3.06412e+009
4.08593e+010
4.78866e+010
3.55938e+009
1.72764e+010
1.0979e+010
1.65715e+010
1.25969e+010
1.32892e+010
1.90564e+010
2.8538e+010
7.53946e+010
8.52862e+006
1.82051e+010
1.59382e+009
1.58665e+010
1.35654e+010
2.15225e+010
4.176e+009
8.17089e+009
1.2675e+010
2.2843e+010
7.7979e+009
2.24547e+009
1.44627e+009
1.0353e+012
6.08606e+009
2.56075e+011
1.52913e+011
1.58226e+010
6.47982e+011
1.25298e+010
6.37014e+009
1.50191e+009
2.75724e+009
3.36324e+010
9.31076e+009
5.67462e+010
1.21567e+010
1.12627e+010
4.43552e+009
5.74243e+011
1.80237e+011
3.19369e+009
3.67935e+009
3.3189e+009
8.93235e+009
8.31432e+010
9.60897e+010
1.21588e+011
2.10517e+011
4.93702e+011
4.32457e+009
7.64354e+007
1.31462e+010
6.30878e+010
2.78406e+010
1.78881e+009
1.08524e+011
1.21809e+010
1.0659e+010
5.81105e+009
2.69733e+010
4.51686e+010
3.70486e+009
5.36891e+010
1.50595e+010
5.72702e+010
9.65449e+010
8.14972e+010
1.39977e+009
1.97341e+010
8.33958e+010
7.82502e+009
3.42412e+009
1.5844e+010
1.29302e+011
3.58863e+009
1.71609e+009
3.96397e+009
8.69203e+010
8.38207e+009
7.59145e+010
5.81718e+010
4.76154e+010
3.28664e+009
2.35558e+010
8.20256e+010
8.42824e+009
2.89514e+011
4.36247e+009
6.32585e+010
3.86972e+010
1.40301e+010
4.23687e+011
3.44142e+010
1.59207e+010
2.93308e+009
2.91065e+010
2.75902e+010
8.848e+010
9.70139e+010
6.30248e+009
3.68276e+009
5.07071e+010
4.95103e+009
7.6221e+008
8.7892e+009
6.82231e+009
2.58716e+011
6.02403e+008
7.7101e+010
4.02038e+009
4.38734e+010
3.37983e+010
5.65129e+010
1.24269e+011
6.69241e+009
5.07843e+009
8.18827e+008
8.35986e+009
7.40605e+010
3.56258e+009
4.04744e+009
2.6954e+010
5.27449e+009
7.9082e+009
8.26192e+009
6.8465e+008
8.51198e+009
2.19193e+010
5.30561e+009
1.1321e+010
1.37382e+010
4.8445e+010
2.60206e+009
6.80237e+008
5.14577e+009
2.23424e+009
7.99136e+008
1.55967e+009
2.12157e+009
5.03489e+009
5.16139e+008
1.99604e+009
4.08587e+010
9.59563e+010
2.56782e+009
7.46272e+008
4.12179e+010
4.88281e+009
5.58806e+006
2.23473e+009
6.93257e+008
3.29797e+010
2.43154e+009
1.67659e+010
2.73628e+009
6.82419e+010
4.85294e+009
6.0021e+010
8.25169e+010
6.30703e+009
2.14412e+010
3.1887e+009
3.31277e+010
1.76666e+011
1.0043e+011
2.07145e+011
2.10028e+010
2.45151e+010
1.98126e+009
3.06373e+011
3.07014e+009
2.4447e+010
1.28487e+011
3.23667e+011
8.67838e+009
2.57727e+009
3.40157e+009
2.15582e+009
2.44636e+009
2.02838e+009
2.07949e+009
2.23424e+010
3.27241e+009
6.42666e+009
8.92691e+009
4.56271e+011
2.11072e+010
2.20228e+010
7.9916e+010
1.69519e+010
2.40507e+009
2.11618e+010
8.55589e+010
2.73206e+010
1.49705e+009
1.90932e+011
3.99247e+009
1.74682e+010
8.5534e+009
2.35529e+009
8.51373e+009
2.46735e+009
7.25722e+009
1.16923e+010
1.12164e+011
1.5251e+011
2.62924e+010
3.03346e+010
6.11066e+009
7.09923e+008
2.41166e+010
2.05787e+009
3.36669e+011
6.05491e+010
1.36122e+012
1.15829e+011
6.83385e+010
4.98744e+009
9.96785e+010
5.15254e+010
2.39854e+009
5.66379e+010
4.30726e+010
8.5075e+009
1.58295e+010
1.43185e+010
1.01658e+010
5.53492e+009
2.43872e+009
3.66901e+010
8.6857e+009
1.76306e+011
3.08673e+011
3.39256e+009
8.41841e+009
8.32872e+010
1.20337e+009
1.38151e+009
2.13395e+010
4.22629e+010
7.71149e+010
7.25222e+009
2.63985e+010
9.82364e+007
3.51548e+009
1.50455e+011
1.07008e+010
1.59458e+010
2.49465e+010
1.65114e+009
1.16648e+010
7.46709e+010
1.5706e+011
4.10511e+010
8.98272e+009
5.16558e+009
3.94256e+009
4.81835e+009
8.04452e+009
2.00893e+010
3.80607e+010
3.04571e+009
6.32759e+009
5.02009e+011
1.32442e+010
8.34358e+011
3.49439e+011
2.51076e+011
6.26612e+009
8.3747e+010
6.97278e+009
4.30773e+010
8.35762e+009
1.20834e+011
8.33291e+011
7.50701e+009
1.75809e+011
5.21052e+010
6.23919e+010
1.48367e+011
1.64511e+010
6.74968e+009
2.14166e+010
6.55565e+009
6.54959e+009
5.13788e+011
2.64121e+011
6.77795e+010
3.38326e+010
1.07037e+008
2.31506e+009
9.05946e+009
9.08619e+009
1.28394e+011
4.01116e+009
5.21211e+009
1.68963e+010
2.72073e+009
8.13001e+010
2.88602e+010
6.96843e+010
3.44986e+010
1.48942e+010
1.56755e+010
7.57836e+010
7.80803e+009
1.80895e+011
2.86326e+010
2.12141e+009
5.5147e+011
3.8093e+011
8.59331e+011
3.8019e+009
3.04447e+011
7.26708e+010
4.50079e+010
1.04223e+011
1.39048e+010
2.78928e+010
3.38912e+009
1.38374e+010
9.28748e+009
2.0006e+010
1.28118e+010
2.78638e+010
1.4094e+011
9.65013e+010
7.82222e+009
2.34542e+010
6.03484e+010
2.39754e+009
7.07316e+010
3.18752e+009
1.11873e+010
5.20757e+009
5.13067e+010
9.63018e+010
5.77909e+010
7.423e+010
9.96437e+010
3.40256e+009
1.35438e+011
1.3266e+010
7.31909e+010
2.53471e+010
3.32353e+010
2.55088e+010
2.73235e+010
1.84917e+010
1.68254e+010
6.19295e+009
9.03203e+010
6.25188e+009
1.51396e+009
1.60556e+009
4.38645e+009
1.47438e+011
4.75103e+011
4.76512e+009
1.55048e+009
8.61718e+010
2.67255e+010
2.04705e+009
7.62111e+010
9.52393e+009
3.95692e+009
5.86282e+010
1.9029e+010
5.17967e+010
3.83599e+011
7.27698e+010
1.05408e+010
1.08921e+011
5.02446e+010
2.80978e+010
3.93608e+010
2.49246e+010
8.78708e+009
2.14732e+009
5.02368e+009
9.82382e+010
1.22519e+010
1.31831e+011
3.28794e+010
5.2188e+010
6.88099e+010
5.16694e+009
4.18086e+009
2.88568e+009
9.61645e+011
7.36758e+009
8.88687e+008
3.02219e+009
1.23383e+010
1.03397e+010
3.31202e+009
8.27055e+009
5.57629e+010
2.51198e+009
9.14098e+010
1.07355e+011
5.60254e+010
8.57039e+009
2.32052e+010
2.4613e+011
6.7892e+009
4.95875e+009
5.60853e+009
2.54437e+010
1.38726e+010
3.3516e+010
1.76048e+010
4.09167e+009
1.97309e+009
7.90697e+009
1.9827e+010
4.16325e+009
7.6799e+009
2.48813e+008
3.14081e+009
1.25242e+010
2.52107e+009
1.44972e+010
2.28733e+010
1.02548e+011
2.42475e+011
2.62859e+010
6.73352e+009
4.31263e+010
7.62645e+010
8.17938e+009
1.74452e+011
6.66409e+009
1.75296e+011
2.72385e+010
8.03288e+010
3.69991e+009
4.95804e+010
2.32527e+009
6.83728e+008
8.78954e+009
1.68532e+010
3.44189e+010
7.8599e+009
3.00421e+010
3.43088e+010
3.934e+010
2.58549e+010
3.20417e+010
7.82987e+008
6.24522e+010
4.75155e+010
6.04029e+009
8.59395e+009
2.50706e+010
1.53474e+010
4.91796e+011
1.03612e+010
4.47359e+010
4.94723e+009
6.46463e+009
1.26883e+009
1.29569e+010
3.69143e+009
3.25414e+010
4.99684e+010
1.11849e+009
1.71188e+011
6.44138e+009
7.2571e+009
1.29092e+010
2.71389e+011
5.72636e+009
2.17282e+010
2.74246e+011
8.73287e+008
8.05266e+008
4.48225e+010
1.49361e+009
2.57333e+009
9.82509e+009
6.25488e+009
2.0181e+009
1.01607e+010
4.6826e+010
3.24797e+011
8.565e+009
1.29573e+010
1.33248e+010
1.47685e+011
1.79571e+011
1.01906e+010
1.34437e+011
1.26877e+010
3.71397e+010
1.53581e+010
1.90444e+010
1.56181e+009
2.13866e+010
2.32593e+009
1.95541e+009
8.0429e+009
1.23951e+011
5.31644e+011
1.60638e+010
5.66377e+010
4.7657e+010
9.15545e+009
5.56553e+009
3.94272e+009
3.45258e+009
1.10559e+010
2.1042e+009
6.00867e+009
2.79841e+009
7.87289e+008
4.70642e+011
5.57308e+009
9.18925e+009
8.45835e+009
7.67139e+011
6.12484e+008
2.03641e+010
3.36443e+010
5.5764e+010
1.60231e+010
3.35742e+010
6.8287e+010
4.0945e+011
1.08386e+011
3.0692e+009
6.76276e+010
6.9487e+010
1.72343e+009
1.85602e+009