/*--------------------------------*- C++ -*----------------------------------*\
| =========                 |                                                 |
| \\      /  F ield         | OpenFOAM: The Open Source CFD Toolbox           |
|  \\    /   O peration     | Version:  dev                                   |
|   \\  /    A nd           | Web:      www.OpenFOAM.org                      |
|    \\/     M anipulation  |                                                 |
|*---------------------------------------------------------------------------*|
|* OpenFOAM for Windows 18.02 (v1)                                           *|
|* Built by CFD Support, www.cfdsupport.com (based on Symscape).             *|
\*---------------------------------------------------------------------------*/
FoamFile
{
    version     2.0;
    format      ascii;
    class       volScalarField;
    location    "1e-005";
    object      k;
}
// * * * * * * * * * * * * * * * * * * * * * * * * * * * * * * * * * * * * * //

dimensions      [0 2 -2 0 0 0 0];

internalField   nonuniform List<scalar> 
23640
(
8183.79
23037.2
2523.64
73452.4
11560.9
31883.7
20128.8
6427.26
75628.7
52553.2
31633.6
34844.5
48121.9
10003.1
49872.1
27224.7
7331.72
62906.4
48941.6
63090.9
30466.1
1073.41
31752.1
16269.9
7401.78
23475.3
97004.9
69768.7
5306.94
11820.7
508730
121988
29523.1
50823.4
52120.9
51493.4
7320.75
632551
2595.55
13542.5
41653.1
72946.4
8437.87
3978.11
98008
102436
7887.45
24977.6
51970.5
6520
122347
72282.1
51492.7
6127.61
74894.2
37267.8
48801.4
26263
7560.57
87976.5
540939
97106.3
32433
70336.2
12390.5
70361
22828.6
8292.81
30875.6
8540.55
13588.6
50209.5
35645.3
5892.84
32258.8
120421
6198.47
82270.1
48004
32281.6
104093
81267.5
7017.24
6915.87
11940.6
41314.5
72384.6
9122.75
22016.6
49758
15888.3
24526.3
56962.1
39666.9
76741.6
16795.6
68361.1
39391
24122.2
57433
58630.1
6051.25
13862.7
94327.9
47093.6
631914
33810.7
5657.24
38706.1
29344.9
644702
36169.5
39343.1
40791.3
76986.6
519153
49259.4
663416
8006.93
13128.6
10221.7
119310
36523.7
120629
91040.4
13156.4
122463
80495.1
31421
38032.8
72488.9
69400.2
52916.7
95817
108101
8896.29
28945.8
7845.83
31365.4
63371.4
27478.7
49080.1
35546.1
31871.5
26742.7
18322.7
28744
16391.4
16506.3
29507.2
6439.27
28989.9
7608.74
49034.6
78464.6
631571
20159.6
47908.5
21651.9
97415.3
47637
51870
52341.8
11614.7
463454
582131
20267.5
110686
37238.9
67396.2
24559.3
77651.4
31923.1
37944.7
32653.9
31488.5
38281.6
84034
32576.1
12806.9
97671.5
12588.1
7693.05
69873.4
5574.51
96400.3
94630
49756.6
81170.3
72534.5
75302.2
27754.8
117884
7657.42
5162.92
11845.3
47350.2
40222.9
8297.5
95846.4
39739.8
5862.58
486355
71602.7
42496.3
11834.3
7795.89
30823
80768.8
22710.2
11041.9
8245.56
8909.32
12224.2
29019
32703
25993.6
62785.4
15525.9
6042.4
9144.55
29391
39464.6
35645.8
19295.9
37661.9
28291.3
119902
6177.06
15617
8568.81
5122.17
60110.6
8820.59
47124.6
80964.9
13882.3
33818.6
16286
99189
61406.4
40641.9
42413.6
68714.8
68503.5
5291.16
6493.57
36655.1
37488.3
13588.7
91555.1
26655.4
7894.52
32469.5
8803.34
13636.3
2159.2
5352.53
47728.9
42578.3
88672.9
564862
62667
37118.9
7686.34
8387.3
93006.5
21740.4
9189.07
75055.9
44902.6
6520.34
9907.26
83532.1
77879.2
50677.6
5644.29
119266
71927.1
37656.1
12722.3
10360.9
99520.8
31642.4
42646.3
98847.2
11451.9
42357.6
22172.7
31804.6
20494.4
5829.94
32346.4
14161.6
31525.1
7955.98
38016
6126.22
26123.2
7887.2
112070
68574.5
120038
24256.2
29488.3
117232
72800
99887
83188.9
33666
5065.84
77069.5
33518.7
43671.4
39855.7
93547.4
47786.8
2331.29
75396.1
34076
6134.68
49838.6
52172.1
68320.5
140941
84432.5
38076
9090.53
5863.22
122272
103244
6549.8
70915.6
85316.8
21668.2
22316
8068.46
43571.9
7654.61
25831
35123.7
36958.9
77573.7
119379
22994.3
65644.8
98545.1
33133.3
37278.5
60442.9
42207.2
80920.3
5420.68
680065
50577.5
437372
6866.27
538058
31144.5
29570
93728.2
32329.2
63475.9
8177.88
33096.4
5190.48
142941
47905.2
49025.4
13736.7
103563
17691.9
5264.7
39310.2
90451.7
5389.99
95093.8
7176.89
9497.48
92153.5
35681.8
18248.4
29189.9
39899.1
33841.3
407341
58948
598046
12564.8
4293.75
80675.6
34109.3
11517.3
51440.1
63150.1
15733.1
118786
379492
7773.1
99392.2
4671.32
9513.61
55472.3
9162.55
67532.9
27112.6
67464.4
5458.35
50877.9
22511.3
39289.4
37089
36876.2
89581.8
29311
40256.1
98837.2
15148
77850
55923
47947.6
79102.1
26037.5
39779.7
59467.8
112223
119966
42147
31838.4
6179.82
8187.71
103510
22045.6
31341.6
84589
23311.3
105365
43944
95041
86055
86095.4
29257
40916.5
64290.4
88819.8
20923.9
99423.1
44862.9
36503.4
48554.8
122697
22386.1
34335.6
33623.4
72626.9
301515
20829.4
71629.9
41712.4
45809.3
76646.9
42082.4
42455
122638
49681.6
13062.2
54067.2
24924.9
63935.2
75834.7
69304.5
17728
90446.6
6962.48
5195.43
99270.7
8752.3
122648
74932.5
115663
17856.9
6454.29
58508.3
63780.9
43103.5
76230.4
24383
6905.64
453961
7736.61
92010.2
111668
75598.5
13656.5
9162.1
26909.9
56072.1
107839
77889
404656
16362.2
32101.9
73522.7
20214.6
18080.9
8462.3
65751.5
6228.06
5670.3
31774.6
101756
6180.44
53546.3
48556.2
31647.3
43932.1
41142.9
5192.29
66877.2
30588.1
40804.8
85652.4
122697
47989.9
21789.1
40220.2
29791.6
79530.5
35675.2
7246.34
29267.5
19837.7
83720.5
33752
56349.4
15278.1
52294.7
61575.9
5553.09
63342.9
8164.3
18196.7
10098.4
25683.2
6043.63
8380.32
48103
24607
11841.6
11431.2
96544
9149.38
61608.5
6230.18
95098.2
14137.1
10555
36136.6
29705.6
34364
6236.35
20983.9
22249.6
96597.3
59024.7
32176
31853.5
38511.8
105204
45637
122694
10505
8810.94
675798
673629
49082.9
43334.5
40587.3
47411.6
7598.8
104834
30817.7
572176
80172.2
43161.3
19134.7
6431.48
46200.6
23154.3
38603.5
37241.4
8818.26
40006.6
65416.3
8127.81
74079.7
61063.8
96238.7
17658.1
62608.1
29878.3
36106.9
47932.7
80122.1
13016.2
22966.2
68767.8
5689.23
42178.4
29622.7
14013.9
6400.7
33856.4
15990.5
32078.7
68023.1
52715.6
28192.8
5865.6
120318
43320.1
38303.4
43198.3
37852.7
9426.1
75967.3
26451.6
38238.3
17060.4
41272.3
5400.63
20583.1
3703.7
12961.2
7215.84
82591.9
16745.6
26940.3
354689
43067.5
65884.8
36846.2
20230
151910
13888.7
30708.2
38754.1
95213.3
435631
33571
58759.5
118930
24538.4
15001.6
61481.5
75479.5
77911.1
24166.3
13340.8
6930.16
57547.4
104294
552632
86416.4
302.955
182.43
5940.89
117710
23236.8
32872.1
119606
26226.6
28820.1
57293.5
70113.5
5971.33
15230.6
10051.1
7837.95
32330.6
93286.9
33311.1
10868.6
3946.92
46551.6
301834
72648.3
45322.2
105016
119507
5194.24
8508
65933.3
9555.66
87234.8
7621.81
42234.7
40428
16002.5
38405.4
121852
71588.5
53980.7
14364.5
224758
58615.3
11712.3
48347.8
17315.5
79499.7
38864.2
12627.6
79126.7
8517.81
742.069
50536.4
40053.6
24174.9
31076.2
38209.7
58266.6
98915.6
43942.3
9115.67
77639.9
855.504
6079.84
5257.64
42890.7
64178.4
24464
482093
28811.6
17512.6
701078
36669.3
27556.7
40599
29974.9
26632.2
6883.05
46569.4
30521.9
89908
97648.9
103911
470232
20705.6
11002.8
14572.7
90612.3
200423
17278.2
13940.6
13169.2
122654
93485.1
5780.16
74319.5
12344.3
693644
7552.35
78968.8
26356.3
65797.9
33965.4
30944.9
52487.3
45531.7
76929.7
42008.7
48293.5
105325
40649.4
18632.3
14405.5
33661.3
32011.6
83365.8
16184.7
45961.5
120966
3354
17368.7
37503.3
111053
94871.6
193861
71655.3
39570.6
7186.2
52405.2
30296.5
17484.8
10182.4
16570.8
5730.14
28348.8
7688.64
14322.6
55353
49927.5
8802.06
666508
48535.8
74743.5
24118.8
43902.9
25881.5
14017.7
53257.8
17589.5
10045
65878.6
30894.3
75152.1
20054
12487.4
49732.3
41453.5
33639.3
13235.4
9394.11
70160.3
25315.5
15515.2
72889.4
449722
43628.8
80580.6
14653.6
92838.8
286150
68545.4
39865.4
24316.2
34580.8
87689.4
7420.63
13856.2
67151.2
62126.1
33854.2
50771.7
716620
372924
49990
14793.8
11894.1
11001
11151.1
109370
56141.1
6261.91
53606.4
122697
21352.8
74157
59272.2
72270.8
101435
7820.91
16680.7
15068.1
96106.8
104380
34093.1
513271
107702
39774.3
90298.7
16821.6
28774.8
31084
122605
4915.36
34376
120048
129157
4332.98
44671.4
11260.7
67277.9
424222
90634.4
63110.8
31477.1
72025.8
71103.7
6674.93
2779.19
98414.6
42217.2
52619.7
7611.4
76119.3
21256.6
7971.06
4818.61
18590
40391.9
8602.63
8484.38
449151
77283.9
3569.38
78159.7
7143.43
47330.3
658289
103751
4266.08
54649.6
65953.1
55155.5
15944.1
94104.4
39799.1
40416.1
28313.8
33694.4
35609.4
11692.8
12334
158054
44094.3
5241.32
31419.5
53118.8
118368
68841.3
39202.9
5188.18
42992.7
92505.4
83683.3
48037.8
11920.6
25641
33330.4
55285.6
99741.8
26205.2
30879.9
28699.8
85197
20259.4
66325.9
4990.58
503073
37184.4
29655.7
629181
49740.8
17127.2
11298.6
27523.3
2115.37
22891.3
132677
40387.7
15098.4
41122
5927.77
41428.6
6960.23
26356.5
79826.7
7987.45
23106.7
35611.9
7887.2
28330.6
29172.8
38900
18524.6
41081.3
49726.4
46131.4
23000
53034
13225
39332.7
26494.9
23838
34179.2
5107.62
12635.5
17547.8
50672.4
6550.88
66750.1
8330.21
41997.2
15241.2
28959.9
82162.6
7878.29
38741.6
41739
56548.4
6106.17
82577.8
74023.9
46531
97823.2
86789.2
5424.28
16381.8
18113.6
8722.99
18450.2
511766
19739.2
14065
56495.7
6364.91
20804.5
54853.6
16956.7
43235.6
115980
4881.21
15085.3
75677.8
8858.82
19786.4
51110
20980.8
25278.6
56246.3
75916.4
6645.45
57016.3
252704
18801.2
14810.7
49261.6
23875.2
8482.43
7015.16
21319.2
8931.44
20212.5
191301
101333
59708.1
100111
109118
41733.9
8396.31
32178.8
101495
15580.7
34098.8
16373.4
74199.1
8442.98
25777.6
47555.1
31001.3
19467.3
7926.09
38622.3
25312.2
5811.45
6004.64
98434
101046
33137.4
21527.5
4351.41
61065.2
108994
92569.3
7583.5
99019
551127
17231.4
15682.2
20958.1
50581.8
45044.9
93664.2
13769.7
48398
62788.1
46581.2
10188.6
40644
67886.6
8655.25
9371.3
118088
89585
10119.5
13669.1
6915.3
37223.8
21799.2
37565.8
6045.82
3563.25
60250.7
5707.77
22054.6
27462.4
8251.83
27598.5
99953.5
28534.5
18988.1
443440
408940
8193.62
20189.7
98277.9
90752.1
10732.5
72593.6
21269.6
91112.1
5946.41
4828.7
6087
120666
18521.8
51774.8
18377.5
100884
37239.7
50897.3
50122.5
33690.8
122446
5665.26
10381
9839.83
6371.34
5079.23
71338.9
35496.5
632751
27862.1
12006.3
96929.1
58988.1
50882.3
9335.1
93554.4
50354.2
487084
14343.6
6362.52
52837.7
5158.64
103849
12202.9
71178.3
30151.4
45794.4
36854.7
58324.1
402255
75539.4
70361.5
43505.3
22265.8
57097
87261.6
64895.6
53422
64507.5
55837.1
56084.1
45744.9
17873.3
36650.6
90017.7
7408.45
7557.87
45728
40962.2
5198.35
7368.49
37305.5
92767.6
455035
16423.4
8630.69
41232.4
14774.2
12290.2
9524.2
12583
31338.5
5678.16
122692
6176.76
30301.1
10406.4
70933.7
30225
37826.8
16064.3
74257.8
57236.7
15479.9
63906.8
28640.8
319227
39032.4
22484.3
26875.2
6159.4
26519.1
480592
85495.6
12537.8
7234.36
10874.7
54653.3
15998.9
77778.4
30177.5
37195.5
33768.8
104240
94230.8
69543.3
37513
12793.5
54961.2
14633.4
1125.62
21694.1
33893.6
660249
5094.18
14913.7
38514.8
57664.4
30604.5
33952.3
34786
8356.01
17618.3
53972.3
16148
14420
112517
51436.7
66446.8
5705.71
32776.9
81531
611833
5870.12
468958
74595.9
31251.4
41106
37612.2
87691.2
75408.4
18279
26060.4
1072.87
4604.22
20317.4
7481.14
3451.72
25877.9
7481.93
14986.1
24755.1
92390.7
28998.9
55749.3
16621.1
35283
75367
40691.9
34316.1
45607.6
15013.1
7078.31
397405
26223.5
86935.7
39933.2
42734.1
61670.8
15803.5
56709
98027.1
47908.1
11378.5
709420
23558.3
30730.2
591943
10992.4
517015
438996
11369.1
122691
60491.1
31701.7
50803.2
46787
30541.9
25119.1
18676.3
42901.1
71149.6
39705.9
19256.1
27251.9
6925.68
56850.8
7674.82
228689
72095.6
601333
67805.2
4825.68
16023.2
79307.3
78154.2
9693.51
36583.7
24867.4
39031.5
37195.4
19029.4
100857
35933.2
30624.8
28620.3
72507.9
5298.21
16017
6750
316541
43407.6
70455.3
34166.7
58470.8
36229.9
20686.2
52174.4
612202
59650.3
54801.7
122494
14262.1
34253.5
103754
69619.1
48607.1
28677.7
131944
21035.8
46931.5
2566.64
122194
12781.7
60856.8
474290
250466
5370.56
33222.4
38055.7
121703
36539.3
47822.4
18332.8
637.527
7807.59
27262.2
18252.4
665917
99466.8
47245.3
112365
57945.8
98642.7
31449.9
93593.3
26393.7
695006
30481.6
58190.8
88357.4
25916.3
77227.8
96578.1
47486.7
103438
85888.8
7967.01
7720.85
20351.1
24651.1
21125.8
5296.85
29372.1
77072.5
45910
32636.4
150277
50659.2
10811.8
11900.3
35010.5
709863
28431.7
61091.4
9132.51
28580.6
59499.9
94365.2
36378
26656.4
8272.04
40878.3
60706.4
23463.4
78924.8
15922.6
19914.1
423272
38793.7
6709.59
454.76
53333.5
6258.91
39416
466985
10419.9
15201.5
66949.1
12173.2
5772.63
5945.54
6696.71
16234
37666.8
30086.3
37494.2
74108
65378.2
55063.8
7177.96
93686.5
82682.5
43154.9
96234.1
70477.7
26007.3
2964.18
122581
112665
45294.9
86032.1
21400.9
10438.7
45576.9
75865.9
32671.6
34870.5
43080.8
72416.7
75634
28506.1
30616.1
76850.7
27557.1
3838.34
50850.7
44382.7
30692.6
33599
47115.3
21367.4
48049.5
34136.8
55402.7
25964.9
27677.3
29318
6295.44
401664
20890.2
26054
73374.6
27125.4
9702.41
32622.8
21507.3
88212.6
31869.1
43714
101902
33782
90324.8
6676.58
77615.5
21200.8
16469.8
53328
67301
19439
14269.6
69258.4
6563.92
89434.3
47331.7
19310.8
68122.3
56281
31235.1
122697
497566
16128.1
47494.9
54757
107590
115726
5474.28
7408.43
76752.5
26830.4
20996.3
94486
36765.5
33262.8
6845.75
35530.7
14516.3
5957.27
71179.9
31119.2
19845
9082.95
51462.8
10998.2
37560.2
14397.2
10465.8
72323.7
21375.5
8778.03
73065.6
57177.6
23285.9
122392
59920.6
21011.5
36465.4
42676.1
42304.4
11991.4
104550
24816.5
17214.9
10199.5
18933
53451.3
77925.2
39200.9
6327.76
1817.49
26931.9
49033.2
24009.8
122694
24618.5
21548.1
57782.5
67487
17730.5
31332.5
52345.9
6171.37
97837.9
9371.6
20149.3
75137
59973.4
44469.5
55912.8
45249
6493.82
75705.7
44671.2
10721.6
45918.7
86379
43541.3
32704
87902.1
61528.8
29585.9
59134.4
11473.5
29249.7
98307.8
557151
55177.1
117555
75591.4
30504.9
15255.1
4709.04
103211
47444.5
97182
9672.78
26718.6
37451.2
33944.3
463044
40373.7
38112.6
11014.1
71738.2
39955.6
27782.2
87295.8
5170.99
19094.1
47329.2
27619.4
43442.6
93498.8
28352.7
90555.7
2082.42
41272.1
15293.6
74813.8
117260
81787.2
30339.2
115123
31887.2
34317.9
7086.06
53166.8
7308.56
15859.2
32340.9
15058.8
39239.5
5153.04
58908.9
40491.2
17622.9
22470.4
56658.4
28688.5
5069.78
14202.2
22099.9
48344.5
72426.1
118187
6183.33
4836.21
7955.44
97003.8
85064.4
6221.68
20025.7
9610.71
117594
267656
5919.69
11246.9
10907.5
111849
101837
14719.4
44563.9
8763.34
33219.4
17948.1
28282.3
96472.4
50767
58037.6
20039.1
31960.7
10819.3
23600.9
16127
4764.51
80133.4
20667.3
63115.5
47113.6
217253
32699.7
6409.68
88742.1
39667.9
7226.82
8524.16
18972.4
37686.2
32591.8
31010.6
41972.5
48186.4
77257.1
122692
13549
8134.49
34409.2
31265.9
14774.3
12616.3
39872
28414.6
37828.5
30198
8682.04
6340.25
34715.1
14189
14094.4
97282.8
40236.4
49817.9
35276.3
694773
7814.29
6459.22
59052.2
22561.8
65333.5
28763.4
30859.2
11860.2
40038.8
67312.7
5908.64
120179
6671.62
20143.5
98533.2
68264
70401.2
113050
47588.7
9533.89
122694
24583.2
85303.8
46852.9
8738.2
43618.7
75607.8
63832
515521
40897.1
74384.1
8994.54
73143.5
12557.3
84126.4
42717.1
52244.2
41124.1
42052.6
92449.4
29608.4
13516.9
70611.4
21161.6
100383
2238.62
11104
99111
30206.3
73296.9
77931
38606.6
8824.02
32525.6
97214.7
23308.5
53668.8
11068.8
66646
34596.6
36419.8
56863.2
37165.2
14365.7
13570.3
48616.8
38235.2
89158.6
84097.9
330274
8701.42
52513.8
510070
12864.1
17017.1
114611
13768.6
5801.18
78302.7
84925.3
52271.8
51544.9
83702.4
101568
14920.8
468725
16891.5
110659
49651.4
11931
10825.4
54310
18249.3
28710.4
29081.6
5213.56
28030.3
31765
510637
28079.7
17492.3
58440.8
15454.6
8385.04
324782
6221.47
4769.19
5599.16
8752.08
315540
4311.9
63829.5
60566.1
96236.2
5982.74
10726.8
70167.3
447217
122690
9551.17
4791.85
47151.3
9942.78
40940.2
174731
54704.5
489996
65642.9
67097.5
672690
11793.7
8458.59
54076.1
47595.4
57674.4
98876.1
40062.5
44210.7
8998.24
39808.4
7406.88
24575.6
65263.9
83926.7
38189.7
15399.5
16789.3
15118.6
5006.88
90754.4
13128.5
37161
13515
692211
24829.7
30702
113999
38486
49062.1
23790.6
11314.1
110899
91980.1
41014.1
5679.4
99276.8
286534
38873.2
38228.3
11111.3
22172.6
11586.4
527289
83117.5
18532.6
58104.2
42060.7
32391.9
23503.3
4863.65
20068.2
9039.17
71935.2
62193.2
61055.5
82805.4
11226.9
11032.6
82053.4
60065.8
10843.9
83677.1
41240.7
31301.1
95198.1
37054.4
32206.3
12716.4
10185.5
52182.4
21593.8
41134.5
53533.5
16769
23886
94295.4
6342.64
7328.37
39804
70485.1
93398.1
14690
49900.5
122690
6642.04
99465.6
22556.4
23212.2
47569
8451.44
84961.5
50488.4
65371.4
69436.2
51805.5
18104.3
15600.9
11816.4
189.864
39030.6
58989.1
5962.92
634525
11118
20159.2
56250.5
83713.7
110037
19994.8
36033.5
514923
51749.8
29752.2
81080.7
55522.6
20323.2
47642.2
60275.9
75725.6
48571.5
39994.6
623610
37427
20927.8
691424
32240.8
105710
11129.9
60373
122661
14798.5
19737.3
23698.6
93066.6
15400.5
541582
33462.3
9242.6
80682
37031.2
48515.1
44537.5
31161.9
29456.3
46931.7
30806.2
57400.7
37948.9
7204.2
52973.8
120526
32390.4
10069.2
39844.7
73788.3
60891.9
46554.7
18772.8
43838.3
16853.7
14237.8
51855.6
36829.8
30447.3
22397.1
98325.1
95967
30147.9
50405.1
84896.7
4863.86
54602.1
165.817
33754.5
473128
48924.7
63661.4
76927
73012.7
97212.1
8537.18
71149.8
17559.8
78678.4
52504.2
53009.1
28755.2
50920.9
19666.6
34996.8
19440.8
94140.4
686434
7836.74
9172.31
16453.3
70544.4
111022
476665
8710.34
47493
43177.5
8053.68
34793.7
19043
8780.38
58703.7
12335.8
69922.5
50853.8
88380.8
18856.5
73822.1
77087.4
46917.4
45905.9
51758.8
48064.2
122015
17624.5
97569.3
22729.3
66398.6
49762.7
77635
51050
508488
391656
9687.93
31717.1
25497.9
5462.68
174322
76631.5
60929.8
7245.44
29920.6
61658.9
15230.8
97419.1
45815.2
74701.4
44677.8
38968.3
115781
423050
17452
118700
37835.4
17626.6
7506.5
34400.5
326952
7675.09
27130.1
43239.2
175709
26702.2
122628
8113.04
22656.9
15233.3
28958.2
28222.3
97961.6
104944
45412
441631
51449.3
49156.8
30185.2
45425
454073
85856.2
41945.9
93388.2
17526.7
46248.4
5788.37
5214.32
37129.5
38625
54938.6
26737.7
47997.9
48720.5
55727
28366.5
45863.7
5152.61
43052.1
65514.1
13696.5
115667
44869.6
27366.1
15061.1
50250.8
41956.8
17782.3
498341
6301.01
33908.7
8146.44
49846.7
67948.5
8876.07
113953
677800
536859
21012.9
50862.9
393951
40654.5
42367.2
5565.78
5266.72
61217.6
8062.83
174017
21162.3
13729.2
12962.1
63277.6
66905.5
52385.3
31870.7
65299.5
33767
56306.4
98881.8
49683.4
44989.2
15117
101353
31689.2
79474.4
5853.42
37738.5
9198.73
7787.54
27341.7
101422
42628.1
28610.3
71329.1
18950.4
18826.1
419470
18191.5
9344.03
27503.1
10095
15686.8
13412.6
5250.57
71805.2
483853
22872.7
28252.2
67145.8
7196.06
18343.6
14906.2
76142.6
13736.9
52298.4
72484.2
64550.2
99256.8
196938
85853.4
45982.7
5403.52
9632
16896.1
715304
12262.5
326189
53080.3
36566.6
34597.8
22986.2
18257.4
23493.9
40723
49910.8
115678
35373.2
8704.71
5593.1
21360.8
6240.82
102504
10997
42838.1
76088.8
37168
4945.14
99878.4
5829.76
9354.24
39621
12777.1
16493.5
44424.2
33146.3
26884.3
7754.84
7859.32
51506.3
4991.13
90380.3
18471.9
69223.9
4736.16
89853.9
41514
21228.4
41670.1
90431.1
14067.8
41841.5
6833.08
22654.5
510266
45702
36551.9
22880
13697.2
28764.1
20726.8
48736.1
92171.7
41212.2
5352.99
26389.6
86200
42273.1
31751.9
29657.3
50220.8
22175.1
482654
46344.4
7366.32
66733.3
19609.7
32351.2
4750.98
37983.3
5666.75
15390.3
15194
80150.2
70400.3
13085.1
52624
8493.04
45566.8
16043
107651
453295
20628.5
7339.18
51195.3
107202
15176
122454
92042.1
48783.1
43378.5
5582.36
9247.54
20456.3
11543.3
50403.4
50293.8
19220.3
68763.2
108907
547508
44847.6
71575.9
30659.1
14919.7
28812
7454.85
39602.2
41012
27758.2
481924
18047.1
18278.6
86635.5
22580.1
31068
15110.9
42811.6
41486.2
39145.1
11563.2
36623.5
7668.43
161.488
92811.1
5129.13
205.222
561407
5982.87
7750.12
65142.7
92298.2
51662
36028.4
7045.36
74160.1
5800.99
17447.5
97173.2
73422
22395.9
395845
97307.7
14797.6
24308.9
30159.9
59095.4
27137.7
75301.9
31432.8
30554.6
53485.5
5474.42
48073.6
19965.7
290925
4970.6
663177
18929.6
36257.1
22660.7
75360.6
407161
224547
28822
18632.9
5460.46
87524.6
86258.3
83555.8
31763.4
51166.8
536614
7882.33
32290.4
34997.9
32301.7
6002.42
649181
54024.1
83595.4
78982
20418
39154.6
104340
56697.1
6303.01
34943.6
6190.35
25943.6
43838.4
64422.6
26980.2
48171.8
45552.9
43453
411038
5113.55
681463
30971.4
18887.3
39185
29877.6
6701.28
15421.2
42606
28496.7
344153
46011.3
38771.9
56957.1
6748.02
21349.2
27113.2
570322
22783.2
51788.2
8461.26
31346.6
362766
54717.1
726.557
33418.1
110961
6144.19
33004.8
38861.1
61778.1
8394.26
14656.4
5550.41
52093.5
37214
15059.8
25243.2
61819.3
527255
59292.6
22757.1
44343.9
9051.48
7257.85
44162.2
34480.1
7552.53
49387.7
48781
10399.6
6887.39
6121.97
6325.39
23521
40269.4
48079.7
13551.2
70175.5
45494.8
6027.44
8339.62
10606.7
29944.9
79327.5
30305.5
61304.6
93891.6
11857
29780.5
52192.4
41343
37726.4
33078.4
164066
6674.18
34449.7
12703.6
21391.3
35903.2
77638
46492.7
56525.5
29289.9
261585
31246.2
44400.9
8819.3
30695.5
39260.5
9769.51
91301.4
43064.2
28641.2
96924.1
38420.4
61715.9
10636.9
487072
99428.8
96974.3
46961.4
4396.43
71337.8
15460.4
49971.5
37972.4
10490.9
7557.17
7466.53
82098.3
40997.7
40931.7
75721.2
72263
31388.6
55935.1
79970.7
90091.5
93234.8
70175.2
62969.1
8274.27
674768
24926
34924.9
12492.1
522.356
86695.2
37080.5
84050.4
15908.4
43472.8
29341.4
291693
24295.2
209778
33651.6
21555
46944.1
57504.8
64160.8
32986.3
2827.04
33822.2
5045.32
71819.3
25236.3
4285.08
15379.6
51666.7
31466.3
18983
5018.45
165832
65987.9
82483.6
13359.6
44025.6
13396
11063.1
476623
14574.8
35878
44755.9
32411.3
63563.6
49571
33353.1
57297.1
18703.4
89426.3
88624.3
33436.6
60978.7
11623.8
45726.2
5908.14
6443.35
122607
17979.7
35323.5
18969.1
22563.3
680338
17207.2
82482
25884.5
69146.6
31478.7
122163
9855.01
38041.2
27051
17973.3
84798.9
116969
91777.4
112012
86843
9228.32
41157.7
7425.73
28402.3
10676
38518.7
29056.4
31155.3
6198.88
53097.9
6374.99
58837.5
117959
33345.8
22065.9
45301.7
24167.2
18214.1
10076.9
118921
5063.7
16070.3
6144.77
27847.1
273264
8217.64
15289.6
632144
68610.8
625895
53400.5
541745
703907
7382.15
30855
174.646
22352.3
33688.7
12420.3
28784.9
4803.61
19829.1
15798.8
12108.6
34643.3
96677.7
12952.6
45037.8
19647.4
99934.2
7037.75
50398.7
82495.7
63212.8
3218.97
11341.3
7103.77
44046.8
16735
101575
2913.35
20003.7
8082.86
5993.1
40814.4
9384.27
80447.2
34896.3
37730.6
10230
48582.4
67881.3
44150.3
7103.38
40370.1
33515.9
12582.2
88515.7
57631.1
43951.8
45483.1
50645.9
119263
7577.44
43475.7
5591.85
149.162
108850
54029.7
16790.5
15522.6
45249.1
31719.4
31667.8
54236.4
78837.3
31189.2
122689
5197.99
31331.1
38659.8
8302.35
49487.8
6808.11
119678
14883.3
20557.1
34939.7
57551.8
9851.35
24581.1
5325.4
66641.3
8854.31
88123.3
62850.6
28304.1
5814.48
72149.4
12534.2
54163.9
47943.8
23955.6
28166.6
43749.9
8749.39
11299.1
21295.1
8597.8
17154
8012.96
86552.2
37300
31735.4
43707.5
64624.7
7325.26
66450.2
12064.3
368325
5023.18
4647.39
81714.1
120170
80504.1
6239.5
113334
5691.75
35652.4
39206.8
10840.7
63044.7
122311
11976.8
5917.98
38293.8
31252.3
122690
5110.99
48502.7
30564.6
41704.2
48956.9
38955.4
15107.3
133096
98420.5
60631.7
9111.23
72662.8
20110.4
12929.6
23360.9
15170.5
20583.7
34569.7
36478.3
13452
17496
51118.6
106087
41109.1
64291.4
538501
77250.6
12478.5
7222.38
33019.8
8990.55
70099.3
13965.4
84146.9
37841.7
22178.4
14095.7
8804.99
54983.3
4248.14
31210.6
92598.6
12058.4
20292.6
68518.9
66645.2
92903.2
15699.3
9893.5
61323.8
37768.5
25128
58855
40086.1
20754.5
51204.1
70260
32551.6
7675.67
52848.7
37136.9
56114.3
9052.78
65369.2
15683.5
6547.78
56756.3
78974.8
27765
13169.8
28433.3
48952.4
16982.5
13819.2
47448
56533.9
34154.4
11056.6
91354.3
15452.7
34522.8
62528.6
5721.72
17732.6
41932.9
6891.37
26113.3
70748.4
58239.9
53948.6
120293
16882.6
82414.5
66164
64067.7
321004
49564.2
37862.9
72356.7
30830.8
93483.2
7804.14
378256
5657.31
111439
8697.12
78353.4
7818.49
8863.41
703954
16958.6
55465.4
15755.2
5847.43
6292.81
15814.3
40165.9
7809.82
46309
30167.9
61017.4
9620.08
5025.66
87221.9
18299.4
47798.3
36600.1
56599.8
4935.3
7835.33
41494.3
261848
24670.4
32450.5
55554.2
55242.8
37465.1
25804.1
235712
9959.88
88010
23158.5
6314.76
96145.4
15726.9
49798.8
4589.07
45598.2
24266.1
53385.1
15889
5855.23
19104.5
30382.2
51601.9
22992.9
46242.4
59621.6
15395
40329.9
5867
211966
31884.5
17012.3
23771.7
117880
106508
31656.5
58486.9
104895
9270.78
19379.5
34828.1
19519.3
70666.2
55809.1
56847.5
49160.3
6960.45
53254.6
9285.76
9955.06
343424
35175.3
5862.8
4872.51
52162.8
84527.8
46371.5
46781.6
32115.6
11688
55192.5
36294.7
73709
31704.9
99050.5
7386.29
23305.6
46853.8
48607.1
10789.8
30223.4
35406.6
56037.3
38096.3
22420.7
77905.3
37081.4
15269.6
17511.6
57310
12130.4
46976.6
5122.32
5750.05
47246.5
8103.07
33660.7
52137.9
40481.5
96947
33126.6
22555.7
31108.7
64302
19259.3
39051.4
84545.3
15409
30510.5
5876.66
22313.1
52086
30970.5
461246
103684
45430.6
65299.7
16855.7
9723.6
4384.38
122557
120655
50543.1
340840
8562.3
29515.6
17239.1
91370.3
32900
82169.3
27777.3
5233.46
43111.7
38142.1
37312.1
37629.2
42859.4
61695.1
14544.8
13661
25913
56065.4
75364.2
88706.2
31661.1
112234
41144.5
92184.4
70129.6
80684.6
655506
31982.5
8908.7
65925.2
94714.9
49722.2
38130.1
451444
7468.65
51838.1
79225.7
10819.2
82222.2
45606.1
44934.7
50929.1
17973.5
62169.4
9111.3
58176.9
109433
10362.2
597522
39920.8
68258.4
6291.14
30568.4
19604.4
63627.4
50937
4406.99
12712.5
58820.6
65097.9
73485.6
93294.9
6390.54
40335.9
91402.8
80244.8
97680.3
31838.2
19354.3
24475.9
50463.8
39299.9
17594
13303.1
39022.2
84590.6
14650.2
55818.2
427933
40431.5
84441.1
7464.82
16111.2
97903.9
40526.5
85731.2
19529
7877.89
11323
41939.6
15627.8
84307.3
412051
22623.6
45720.9
8953.8
91284.5
59536.7
37057.1
16267.5
40543.9
39830.6
36897.6
97138.2
7960.73
35133.3
61868.7
122374
85251.2
20032.4
13434.2
86351.5
16736.2
41644.4
8897.08
16915.3
49397.2
91985.1
58576.7
23267.7
93503.7
7959.42
41006.3
687417
62618.2
105193
10820
56698.4
20602.7
22781.5
120295
121080
372637
58577.2
79894.8
10398.5
37182.7
57630.2
37794.2
55890.6
27922.9
39909.4
10042.2
428956
5301.4
5127.93
433748
13076.2
4409.92
10156.8
176963
21296.4
3637.14
84868.5
35590.4
205688
96661.3
29788.5
63140.1
21051.1
52074.5
88287.1
43705.7
37275.2
40402
8394.02
95986.3
360409
35834.5
49136.8
73883.6
62914.5
15948.2
32654.4
35693
60388.8
72385.4
41182.9
90930.5
34095.3
30807.9
50596.6
4444.22
479909
88219
83783.3
8688.62
51348.3
718393
704179
702176
707645
719109
36336.1
42132.3
82734.7
39731.1
41653.1
62280.4
40021.8
4590.78
27947.3
45833.1
79180.2
4264.2
63008.2
78696.9
75390.9
4998.65
24381.1
94425
5821.73
89608.1
25541.1
30345.3
4540.47
55331.5
39326.8
498467
13069.1
15838.3
51060.2
41120
15780.5
403140
46448.9
66852.6
81655
30690
29736.5
42139.7
40578.4
19711.1
47757.2
5884.54
55872
119600
30909.3
44905.3
46052.1
46668.8
39960.2
4804.11
86276.5
25663.9
23420
46969.8
50920.4
33736.6
56036.7
13299
85777
33093.2
98154.4
21226.5
83939.7
38787.5
79879.1
29520.3
100667
220318
13595.9
8647.35
91414.9
14703.2
101783
7965.75
5180.05
63157.8
67720.2
62495.1
7482.28
44509.6
5141.85
24690
37572.6
7104.24
111023
34647.4
40172.1
29068.8
102018
409172
26015.4
31842.6
5837.48
28693.8
44654.7
99684.3
52209.7
14347.2
84902
38523.9
30499.5
74555.1
40159.3
59373.4
5205.37
12359
18394.3
17302.6
58098.6
31751.4
71426.6
43290.6
44939.9
83604.9
16484.9
2512.97
7429.36
5957.66
34102.2
38854.3
36237
98108.4
31874.8
80274.3
32902.9
33596
79057.5
8196.97
31682.9
77697.5
51486.8
119629
96431
59787.6
18927.8
48602.9
32217.2
18462.3
5784.37
32083.3
51638.3
23112.5
56978.8
55286.1
93603.6
43991
95507.3
51238.8
52176.7
52216.9
41001.6
75830.1
60242.9
29122.3
5103.79
96550
29508.6
59564.7
48707.6
9225.24
7287.69
22651.7
12475.6
45770.2
48969
26587.7
77557.2
95886.6
43578.8
39407
6090.89
52105.4
89326.8
5720.21
15550.3
17620.9
23713.7
102321
19405.5
6354.55
33537.3
16034.1
36738.4
78494
197630
103161
582148
63020.8
30435.5
83119.8
61175
59686.4
42993.2
99905.6
91220.3
40167.2
39225.7
27650.6
95217.9
33841.2
5093.79
39394
17388.3
95183.3
84325.7
58451.4
101477
8507.29
41333.9
24935.7
16813.5
19604.8
10028.7
82142.9
50787.8
702921
43319.3
25632.4
28991.6
107923
63656
44081.2
318338
7578.21
537950
11902.4
4055.86
702162
47774.1
549946
89576
102271
69523.5
48285.1
91262.6
36572.1
61465.5
63145.9
53222.9
73382.3
5019.78
35195.9
51944.7
84433.3
8971.32
76379.6
681244
49841.9
6530.74
35382.1
65833.2
9159.88
54000
64081.4
6745.69
8827.07
110101
76981.8
17311
74757.5
60153.7
50040.5
38804.2
33738.7
45513
52238.7
90905.1
11900.1
51483.3
12448.1
58356.3
58782.1
27707.5
85700.5
49052.3
16668.8
50294.5
5285.33
58182.4
15619.5
19844.2
11896.2
8533.99
36055.2
10486.8
32646.5
11671.5
5931.05
90624.6
93135.6
41239.8
90138.3
96050.4
53032
18544
60018.3
17453
30910.2
8204.93
68597.5
79037
120826
19384.3
705671
240749
37339.1
92427.3
11667.8
86400.7
7045.11
121184
46075.2
585094
8369.35
30189.7
14583.3
100855
56945.5
100644
37623.7
60605.6
32833.2
42658.3
55289.9
80401.4
25149
7534.74
44309.7
669404
14931.9
24413.9
39347.8
56068
93125.2
122591
79696.4
27313.3
6565.03
8881.97
94627.8
82734.1
17622.2
28685.9
8808
49701.9
52318.8
22829.2
8930.77
32228.5
95601.6
62777.5
44335.9
16896.3
45456.1
101647
9648.52
37957.6
36522.9
50622.8
46824.1
60101.3
77503.9
11659
12582.4
79853.5
48564.9
9876.61
97598.6
98883.6
342448
30400.9
38705.3
122567
18859
31092.7
99251.5
38318
117064
11446.5
19658.9
31715.1
35125.1
6824.31
56377.2
50639.5
7227.09
571452
79104.3
30700.3
19155.2
30218.1
32424.7
6025.85
504489
9953.66
12752
56556.3
38475.8
5184.25
61907.3
20390.3
41536.6
22961.4
84864
30015.1
8723.48
43500.7
45755
45008.6
88352.7
8819.28
16636.3
57976.2
52246.5
37111.1
42289.9
51672
95808.4
55226.9
21678.4
83247.2
22822.3
44926.2
10250.1
6360.09
8427.26
73460.5
94779.7
37032
36968.9
19745
61396.7
84428.3
100322
9266.03
122697
9127.76
52370.3
80537.7
15187.1
107312
94136.4
72393.9
5421.45
486951
482432
4429.1
22448.3
256974
8924.14
24479.4
6508.04
19352.3
23018.7
4979.45
248702
5254.1
95727.7
54790.9
82384.9
32562.5
58388.9
14831
14121.7
5847.42
32254.5
19024
122592
120712
18430.4
14326.3
37820
19339.3
42909.9
92314.3
89201.6
53334.2
84610.4
281337
118420
47787.4
25766.9
61048.6
55642.4
49470.5
17604.8
95028.7
11325.4
16082.8
6366.26
25967.4
421451
122296
37617.1
79037.9
99801.4
32055.6
24026.9
34319.3
41930.4
20734.1
58103.9
17723.4
70636.7