/*--------------------------------*- C++ -*----------------------------------*\
| =========                 |                                                 |
| \\      /  F ield         | OpenFOAM: The Open Source CFD Toolbox           |
|  \\    /   O peration     | Version:  dev                                   |
|   \\  /    A nd           | Web:      www.OpenFOAM.org                      |
|    \\/     M anipulation  |                                                 |
|*---------------------------------------------------------------------------*|
|* OpenFOAM for Windows 18.02 (v1)                                           *|
|* Built by CFD Support, www.cfdsupport.com (based on Symscape).             *|
\*---------------------------------------------------------------------------*/
FoamFile
{
    version     2.0;
    format      ascii;
    class       volScalarField;
    location    "1e-005";
    object      nut;
}
// * * * * * * * * * * * * * * * * * * * * * * * * * * * * * * * * * * * * * //

dimensions      [0 2 -1 0 0 0 0];

internalField   nonuniform List<scalar> 
23640
(
0.00262618
0.00342717
0.000412284
0.0419995
0.00280942
0.00338666
0.00569489
0.00114665
0.00845293
0.000810102
0.00870122
0.00605801
0.0679832
0.00256702
0.00147476
0.00272887
0.00334817
0.00565179
0.00942563
0.0065281
0.00624877
5.31243e-005
0.00660445
0.00107172
0.00165491
0.00553586
0.0105058
0.00820917
0.00319074
0.00478461
3.3062
0.386076
0.0058919
0.0066305
0.00425746
0.00111978
0.00342926
6.061
0.000224438
0.00121115
0.00617648
0.00816536
0.00200724
0.000662548
0.0802981
0.00669991
0.00356326
0.00605714
0.000836571
0.00113774
1.54751
0.00931671
0.00090384
0.00398439
0.0443148
0.000125171
0.00390594
0.00346718
0.00296692
0.0344037
3.66567
0.00893128
0.0116485
0.00986461
0.00431965
0.00967842
0.002961
0.00195806
0.000978355
0.00203025
0.00109229
0.00651684
0.00464756
0.00346408
0.00383153
0.104412
2.72636e-006
0.163551
0.00936336
0.0115388
0.00663929
0.00450951
0.0024615
0.00243733
0.00414647
0.000290076
0.00906565
0.000347186
0.00122172
0.00161498
0.00560445
0.00315452
0.00242372
0.00620219
0.0109055
0.00761483
0.00994961
0.000258038
0.00400639
0.00191498
0.00255834
0.00398572
0.00053408
0.397564
0.00383445
6.01383
0.00443946
0.00429917
0.00679198
0.00468994
5.34948
0.0049215
0.0068088
0.00610852
0.00067182
4.26148
0.00131154
5.79475
0.00269425
0.0051276
0.000211456
0.33239
0.000255875
0.379858
0.00843146
0.00104781
2.00639
0.00236153
0.00335755
0.00584942
0.00897493
0.00423226
0.0766934
0.00937603
0.489089
0.000284855
0.00669686
0.00180012
0.00873282
0.00969147
0.00445595
0.00385754
0.00429719
0.00889078
0.00226176
0.00337757
0.00787512
0.00223779
0.00587751
0.000879332
0.0011197
0.00331276
0.00248289
0.0245124
0.0072256
5.82143
0.00564546
0.00755981
0.00328215
0.0105426
0.0015427
0.000700706
0.00111113
0.001659
3.49934
5.05897
0.00213969
0.00399483
0.00588495
0.00411439
0.00612371
0.000712125
0.00385338
0.00687397
0.00901003
0.00793114
0.00584537
0.000871407
0.0117357
0.0052429
0.0807818
4.41235e-005
0.00174573
0.00838231
0.00315151
0.00880006
0.0094396
0.00268904
0.0225068
0.00858203
0.00748556
0.00741599
0.246498
0.00243651
0.00346116
0.000815668
0.00378166
0.00264678
2.11193e-005
0.00619959
0.00917677
0.00127299
4.34453
0.00800884
0.00830866
0.00415799
1.88599e-005
0.00626193
0.00114478
0.00307271
0.00270399
0.00194723
0.00245406
0.00431558
0.00329133
0.00531877
0.00617496
0.00658085
0.00264809
0.00113472
0.00252789
0.00799524
0.00911896
0.00611035
0.00142737
0.00670795
0.00611299
0.341764
0.00164291
0.00548036
0.00281507
0.0034975
0.00677958
0.00210543
0.00758063
0.0047656
0.0011993
0.00546709
0.00577795
0.00406388
0.00273941
0.000192433
0.00619679
0.00769732
0.0385769
0.00344237
0.00128216
0.000215347
0.0156597
0.000895067
0.0402189
0.00556243
0.00367888
0.00854582
0.00331418
0.00128579
0.000251975
0.00375862
0.0101535
0.00714117
0.0582478
5.24018
0.00330037
0.00673614
0.00302912
0.001967
0.00941439
0.00367751
0.0034515
0.00921875
0.00185701
0.00601074
0.000174434
0.0264762
0.00198222
0.00697854
0.00306753
0.322487
0.0109056
0.00695794
0.000958525
0.00379974
0.00831609
0.00924533
0.00522717
0.00824127
0.00233661
0.00198627
0.00632909
0.00922874
0.0078957
0.00348772
0.00510173
0.00241863
0.00869781
0.0016594
0.00607929
0.00361749
0.00562702
0.00244405
0.00398924
0.00980202
0.386923
0.00337502
0.00661982
0.442647
0.00444792
0.00726177
0.0527114
0.0038474
0.00402057
0.00277716
0.00969261
0.00796229
0.00889346
0.00932664
0.00271201
0.000333832
0.0108926
0.00417651
0.00140739
0.0068856
0.00415901
0.00812085
0.719844
0.00264032
0.000904067
0.00214399
0.00122227
0.98502
0.00752005
0.00116934
0.00837519
0.00957852
0.00485066
0.00326715
1.90361e-005
0.00201739
0.00157
0.00560159
0.000161935
0.00323187
0.00725844
0.290999
0.00503824
0.00564659
0.00864663
0.00593689
0.00667538
0.0071466
0.00727095
0.0025136
0.00382669
5.90337
0.0041934
3.14447
0.00121543
4.99595
0.0106232
0.00815924
0.00942856
0.00770889
0.00952761
0.00241478
0.00522585
0.00308349
0.557462
0.00160838
0.00963134
0.00591352
0.00220864
0.000399213
0.00432257
0.00886636
0.00850678
0.00383885
0.0262716
0.00272592
0.00225559
0.00964991
0.00518327
0.000428921
0.00470322
0.00380618
0.00528289
3.13362
0.00178094
5.2836
0.00090671
0.00312997
0.00972953
0.00264035
1.37125e-005
0.000930166
0.00363885
0.00148443
0.285509
3.04732
0.0038258
0.0078261
0.000678037
0.000158939
0.00382167
0.0106522
0.123527
0.00602925
0.0235586
0.00330042
0.00143555
0.00338591
0.00275573
0.0153301
0.0085228
0.00858642
0.00824555
0.00620481
0.00811367
0.00867659
0.00615891
0.00684782
0.0107958
0.00945057
0.00554912
0.00271515
0.000866035
0.45556
0.314701
0.000370926
0.0075742
0.00112988
0.0038485
0.0928818
0.00305765
0.00616204
0.0097111
0.00524252
0.0024364
0.00107471
0.0028302
0.0168068
0.0095884
0.00902408
0.000573389
0.0011621
0.00982808
0.00319679
0.00811892
0.00168603
0.00900816
0.00161697
436.584
0.00293872
0.00965046
0.00265835
0.0041432
2.06542
0.00616633
0.00446576
0.00589139
0.00117475
0.00612409
0.00525162
0.00674857
34.9275
0.00132638
0.00508951
0.00142738
4.93522e-005
0.00243754
0.00748241
0.00881924
0.00699838
0.0626574
0.00335437
0.00104448
0.0081275
0.00201792
6.85887
0.00275688
0.0671989
0.00307299
0.00295008
0.00821203
0.00116836
0.00160572
0.00097437
0.00348886
0.00134946
2.70192
0.00396362
0.009743
0.0391327
0.178179
0.000800331
0.00212726
0.00605052
0.00247087
0.00692981
0.00078998
3.47561
0.00750961
0.0112282
0.254967
0.00338631
0.00753138
0.00320021
0.00377863
0.00573283
0.00337371
0.0378357
0.00733063
0.00148138
0.000848174
0.000450729
0.00604641
0.00721597
0.00665236
0.00336376
0.00753247
0.00916005
0.00262043
0.00941209
829.629
0.00118025
0.00619713
0.00686607
0.00540281
0.00666371
0.00531379
0.00293011
0.00619075
0.00161329
0.00346199
0.00274045
0.000256819
0.00849773
0.000939689
0.00328587
0.00415688
0.00666653
0.00152053
0.00754217
0.00237332
0.00553172
0.00335761
0.00198024
0.00130629
0.00198551
0.00244135
0.00232868
0.0033354
0.00219105
0.000219635
0.00130747
0.00284776
0.00699672
0.00235902
0.000161962
0.00701693
0.0105471
0.00119766
0.00351083
0.00342356
0.00614466
0.00949886
0.00652223
0.00403233
0.00807526
0.00125134
0.000939629
253.23
0.00263991
0.00203
6.40961
6.22932
0.00959095
0.00037445
0.000287041
0.00296322
0.00387992
0.100818
0.00579489
5.36829
0.00660703
0.00798576
0.00107028
0.0012413
0.00289712
0.00551738
0.00819696
0.0153912
0.00170207
0.00598682
0.00752015
0.00310057
0.0108001
0.00671294
0.00903936
0.00684986
0.00228028
0.00851479
0.00900227
0.00929602
0.00295521
0.00549185
0.000146753
0.00342936
0.00130483
0.00718787
0.00523431
0.00536277
0.00112523
0.00603869
0.0054691
0.00298646
0.00346306
0.000333922
0.00458193
0.0032286
0.321129
0.00846107
0.0060444
0.00693003
0.0158661
0.00237198
0.0103767
0.00568919
0.0087027
0.00748766
0.000608071
0.00337866
0.00366483
0.000488077
0.00538436
0.00260324
0.0505283
0.00769646
0.00556619
2.74562
0.00106356
0.00749145
0.000253048
0.00320054
0.40502
5.04881e-005
0.00584909
0.00872949
0.00865489
3.40872
0.00595095
0.00204754
0.259244
0.00172443
0.00526427
0.00655083
0.011743
0.000808383
0.0034837
0.00839157
0.00126397
0.0081517
0.00624751
4.70643
0.00244923
2.54512e-006
7.22296e-007
0.00117856
0.19445
0.00171539
0.00429392
0.331781
0.00449048
0.00612546
0.00205534
0.0108364
0.00335454
0.00827848
0.00245633
0.00395073
0.0114383
0.0374326
0.00728888
0.00238767
0.000765918
0.00756328
2.01401
0.032324
0.00568866
0.00611906
0.313899
0.0031644
2.13644e-005
0.00284905
0.0024921
0.00922965
0.00360694
0.002444
0.0058545
0.00179546
0.00676273
0.0901613
0.0109026
0.00639914
0.000792829
1.46164
0.00768548
0.000702159
0.0025335
0.00224674
0.00472371
0.00613936
0.000987017
0.00112929
0.00179591
2.18431e-005
0.0010673
0.00290501
0.00637531
0.00593801
0.000529863
0.00380273
0.00820717
0.00193688
0.003152
0.0076739
0.000114165
0.00291904
0.00335306
0.00427066
0.0354127
0.00467968
4.2664
0.00956675
0.0020142
6.98638
0.00663544
0.000138978
0.00616101
0.0103647
0.00493705
0.00144961
0.00751982
0.0107425
0.00175803
0.409243
0.00635167
4.23752
0.000438942
0.0148389
0.00642014
0.00965219
0.901432
0.00421948
0.00705265
0.00290367
7.09184
0.0101163
0.0046266
0.00905027
0.000874127
6.44622
0.00290008
0.00395285
0.00828747
0.0256955
0.000198229
0.00931866
0.00703463
0.00648892
0.00771842
0.00200903
0.00722251
0.00635578
0.00682801
0.00100051
0.00980198
0.00636263
0.00803646
0.0105059
5.62632e-005
0.00291457
0.398868
0.000548845
5.87602e-005
0.00028209
0.0363708
0.00858746
1.03033
0.00807143
0.00685656
0.00332089
0.0012498
0.00283968
0.00756741
0.00224824
0.00192328
0.000751415
0.00866721
0.00285485
0.00112822
0.00692706
0.00332775
0.0019862
5.67989
0.00179074
0.0128002
0.00654025
0.00828228
0.00677949
0.00633653
0.000872472
0.00120463
0.0024047
0.0209228
0.000259858
0.00633235
0.00601085
6.53624e-005
0.0014867
0.00706091
0.0081154
1.10084e-005
6.16093e-005
0.00827505
0.00026747
0.00190108
0.00883157
4.10189
0.00202826
0.00418127
0.00728509
0.0101021
2.05499
0.0104422
0.00679244
0.00542161
0.00365418
0.00992284
0.0022761
0.00804306
0.0101258
0.00603686
0.00918812
0.00733828
7.25554
2.75135
0.0252154
0.00720758
0.000874303
0.00272968
0.00452781
0.232712
0.00192236
0.00124619
0.00986405
277.044
0.00374252
0.00448447
0.00714494
0.00319477
0.00514997
0.00245553
0.00631374
0.000277598
0.00943097
0.255808
0.00917731
4.53929
0.115813
0.000791788
0.00267231
0.00204957
0.00896673
0.0076059
3.12693
0.0030228
0.000884413
0.0029361
0.646655
0.00336483
0.00293356
0.00488982
0.00998695
2.41507
0.00175088
0.00512615
0.0109446
0.00875675
0.0314273
0.00118767
0.000355091
0.00984783
0.00689068
0.00054721
0.000344294
0.00714819
6.63687e-005
0.0015054
0.00116611
0.00151587
0.00901041
1.9387e-005
0.00195953
2.67058
0.00478412
0.000582131
0.00523735
0.00137945
0.0061988
6.2083
0.00326303
0.00291053
0.000799816
0.00464269
0.00318837
0.0071404
0.0093426
0.00901139
0.00806752
0.00901749
0.00217162
0.00308538
0.0045949
0.000736254
0.673439
0.000875001
0.00327075
0.00752436
0.000881181
0.0216616
0.0103418
0.0059363
0.00138939
0.00430333
0.0658731
0.00520189
0.00101793
0.003701
0.00452247
0.012614
0.000339248
0.326697
0.000191762
0.0029977
0.00928719
0.00460622
0.00361241
0.00353976
0.0039057
4.64144
0.00605441
0.00804474
5.78685
0.000939615
0.0053861
0.00482859
0.00304732
0.000187452
0.00601546
0.6292
0.00364321
0.00529068
0.00785551
0.00129208
0.00682784
0.00142872
0.00602465
0.0154207
0.00279266
0.00545437
0.00892576
0.00263263
0.00762787
0.00613748
0.00044192
0.0154439
0.00499552
0.000939752
0.00709255
0.00562217
0.000331566
0.00256759
0.00685858
0.00568681
0.00559377
0.00500084
0.000938171
0.0071571
0.00199739
0.00960347
0.00141818
0.0278394
0.00176578
0.00507154
0.00176287
0.00792119
0.0180076
0.00301993
0.0058798
0.00244876
0.00468495
0.00132951
0.0102985
0.00866537
0.00153677
0.00876853
0.00350216
0.00391777
3.84947e-005
5.4794e-005
0.00269479
0.00759468
4.61793
0.00574529
0.000921805
0.00383893
0.00113911
0.00600092
0.00660664
1.93044e-005
0.00825308
0.160592
0.00285239
0.001532
0.0081682
0.00273422
0.00597666
0.0124668
0.000326313
0.00578806
0.00921572
0.00719392
0.00121078
0.00699271
1.75457
0.00661514
0.0090163
0.00176354
0.00816306
0.0037568
0.0014174
0.00414146
4.6853e-005
0.00597892
1.17651
0.00561952
0.00615423
0.00800427
0.12457
0.00356857
0.00210733
0.00591131
0.0851145
0.00121216
0.00511223
0.00644027
0.00872861
0.00155556
6.04692e-005
0.00715776
0.00428223
0.00131605
0.00215694
0.0165177
0.0058244
0.00111446
0.00103078
0.00837243
0.00801129
0.00217263
0.00292856
0.00289886
0.00112388
0.00197468
0.00190237
0.00153752
0.00996307
3.73401
0.00533267
0.00166049
0.0188821
0.000978811
0.00338775
0.00901812
1.78716e-005
0.0013023
0.0024357
0.00945384
0.000253045
0.00554131
0.00805965
0.00166779
0.00437399
0.00486491
0.00089409
0.0043197
0.00813114
0.00357574
0.000720211
0.00540363
0.00575903
0.00165684
0.000530147
0.0321855
0.00311051
0.0042913
0.00530822
0.00224168
0.00838554
0.00802153
0.00250751
0.00328239
2.89957
2.51786
0.00150154
0.00345035
0.00630852
0.00962239
2.49647e-005
0.00857625
0.00235449
0.213997
0.00133236
0.00302062
0.00338239
0.480081
0.00758042
0.00700674
0.00755394
0.0910108
0.00573429
0.000519486
0.000525381
0.00873103
0.227797
0.00455525
0.00374804
0.00217856
1.40856e-005
0.00301218
0.0109059
0.000235003
5.91242
0.00755012
0.00239741
0.00217338
0.0309916
0.00650028
0.00416154
0.0091237
0.00328893
4.27171
0.00528629
0.00113244
0.00679317
0.00365263
0.00761252
5.79429e-005
0.00890618
0.00685716
0.00570417
0.000368144
0.00684826
3.38868
0.00254293
0.00580355
0.00612229
0.00123897
0.00811879
0.0101414
0.00681827
0.000551895
0.00462281
0.000259014
0.000995224
0.00130298
0.00753918
0.00572302
0.00876295
0.00159907
0.00244533
0.00845835
0.00808679
0.00397419
0.00362466
0.00747687
0.00209074
3.38535
0.00102977
0.00415453
0.00385788
0.00577941
0.00172472
0.00211489
0.00276332
0.00642146
0.00324423
325.369
0.00115179
0.00882291
0.00271074
0.00711899
0.00888007
0.00682276
0.0281347
0.00867096
0.000691263
0.00119999
0.000314954
0.00803928
1.82482
0.00693601
0.00439531
0.00628885
0.00132834
0.00563148
2.96706
0.010426
0.00723993
0.003002
0.00269774
0.000526681
0.00657225
0.00781725
0.00808683
0.0055681
0.0129391
0.00653002
0.0706676
0.00583675
0.000757649
0.00264398
0.00915433
0.0053166
0.000142993
0.00547158
0.00597417
6.14786
0.0011203
0.00307064
0.006808
0.00380847
0.00384563
0.00407385
0.00261747
0.00183863
0.00332779
0.00474808
0.0030262
3.12274e-005
0.00266072
0.000810966
0.00648405
0.00444712
0.000268598
0.00952221
5.22171
0.00113973
4.28903
0.00648839
0.00966409
0.00504158
0.00366452
0.0101336
0.00469886
0.00755001
0.00570268
4.36439e-005
0.00292193
0.00789596
0.000119332
0.000440656
7.07127e-005
0.00226194
0.00307462
0.00620797
0.00915528
0.0087164
0.00694023
0.00747847
0.00262756
0.00879808
0.00559045
0.00905838
0.00109609
0.00876623
0.00376
2.1276
0.000260945
0.008232
0.00623563
0.00161048
0.00111043
0.00650358
0.000315156
0.0101047
0.00886982
0.00257328
6.77303
0.00400307
0.00632574
5.44854
2.77899e-005
3.5705
3.78204
0.00289446
712.972
0.00214369
0.00422574
0.00429031
0.00860845
0.00829904
0.00629444
0.00616921
0.000477723
0.00894369
0.00906838
0.00551378
0.00620093
0.00351738
0.00526798
0.0029955
1.38796
0.00655425
5.3858
0.00381845
0.00299882
0.00209877
0.000758629
0.00759054
0.00194836
0.00651226
0.00383291
0.0059245
0.00688975
0.00632121
0.0049818
0.00630442
0.0102416
0.00838596
0.263154
0.00349038
0.00813071
0.00304317
2.38451
0.00313931
0.00490287
0.00909661
0.00100025
0.012393
0.000113471
0.00681752
5.39313
0.00421368
0.00674264
1.94432
0.00120691
0.00203418
0.00348966
0.0042283
0.000345845
0.00300622
0.311896
0.00570331
0.00523327
0.000176071
0.255884
0.00351991
0.0270484
4.38044
1.54596
0.00328105
0.00785164
0.00617204
0.00691813
0.000327993
0.008971
0.00262861
8.70976e-006
0.00315723
0.00833836
0.00329459
5.22771
0.00809385
0.00143967
0.00254807
0.00524269
0.008436
0.0102769
0.00922761
0.0057377
6.6977
0.00330305
0.00145907
0.00231882
0.00578109
0.00813281
0.0102618
0.00709263
0.00672784
0.00688873
0.00312201
0.0014137
0.00117825
0.000502654
0.00146775
0.00418926
0.0089494
0.0107639
0.00125351
0.00686602
0.716373
0.000636254
0.00409143
0.000440758
0.00614543
6.91764
0.00629884
0.00431069
0.00181013
0.00792541
0.00796203
0.00607258
0.0127512
0.00352564
0.00117475
0.00232935
0.00561214
0.00306532
0.0083062
0.0120501
0.00298208
3.64411
0.000383386
0.00409816
8.63095e-006
0.000519646
0.00383916
0.0078122
3.48223
0.00215786
0.0083162
0.00243963
0.00154441
0.00112551
0.00172695
0.00252199
0.0073121
0.00854813
0.000155874
0.0487503
0.0145523
0.102148
0.0064186
0.00133467
0.00497229
0.0107395
0.000128945
0.0746123
0.0112863
0.00562478
0.000497547
32.0487
0.343658
0.00531382
0.00264398
0.00464393
0.00257868
0.00116957
0.0089686
0.00695385
0.00607641
0.000471901
0.00490425
0.0256253
0.00260974
0.00627808
0.00951938
0.00109886
0.000677882
0.00294802
0.00441253
0.0101282
0.0125082
0.00119384
0.00552283
0.00276967
0.00361139
0.00148567
0.00590284
0.00104904
0.00664689
0.00393813
3.562
0.00568784
0.00593986
0.0109643
0.00616182
0.0043276
0.00736885
0.00359161
0.00277416
0.00595105
0.0202487
0.0938476
0.0101819
0.0333566
0.0029556
0.00816064
0.00131772
0.00101988
0.00633909
0.00413535
0.00544767
0.00538158
0.0106536
1.42014e-005
0.00313339
0.00949076
0.00542905
0.0373422
0.00882496
0.00748813
393.323
4.46832
0.00547614
0.00596598
0.00654158
0.0069188
0.00304542
0.00321134
0.00268136
0.00221866
0.00828857
0.00302505
0.00215344
0.00614081
0.0116365
0.0013889
0.00603337
0.00298585
0.00498589
0.00244822
0.00965221
0.0062395
0.00381139
0.00286806
0.000289812
0.0027996
0.00841161
0.00257726
0.0024326
0.00566988
0.00375804
0.00690968
0.00046601
0.00469723
1.90612
0.0251035
0.00319212
0.000615051
0.000544984
0.000989132
0.00152651
0.0052303
0.00777771
0.000454278
0.00237232
0.00294498
0.00886655
0.00149033
0.00310155
0.00384524
0.000188423
0.00443055
0.00689606
0.00415749
135.265
0.0057358
0.00322447
0.00192351
0.0267119
0.00629237
0.00639708
0.00881374
0.00112114
0.00813933
0.00340256
0.000909736
0.00838503
0.0301777
0.00615247
0.00801274
0.00198387
0.00125689
0.0110722
0.000911335
0.00283754
0.00130137
0.00984829
0.00487044
0.0116384
0.00995902
0.00719548
0.00699607
0.00123866
0.00298546
0.00782691
0.0104842
4.71393
0.00148338
0.206395
0.0105837
0.000164758
0.00149404
0.000977871
0.00242226
0.079948
0.00852102
0.00353712
0.000130523
0.014843
0.0122922
3.02698
0.00301855
0.0161224
0.00282236
0.00850889
0.00660998
0.00622491
0.00774091
0.00296764
0.00548995
0.00664068
0.00475198
0.00216976
0.00887005
0.00912286
0.0088564
8.16566e-005
0.00307424
0.00842965
0.00693582
0.0792219
0.00622268
0.00398459
0.13841
0.00806222
0.00666748
0.00129099
0.0273062
0.00392787
0.00808457
0.00357396
0.00304139
0.0170186
0.00384927
0.00634652
0.000788224
0.000576464
0.00485308
0.0032838
0.00776337
0.00309643
0.00805113
0.00400047
0.00629759
0.00828727
0.222303
0.00298174
0.000979534
0.00282802
0.0089559
0.00653295
0.00139847
0.000393524
0.00472303
0.184447
1.7604
0.00112713
0.00485265
0.00410248
0.00239785
0.00228802
0.00866285
0.00709418
0.0018469
0.00618253
0.00221472
0.00547987
0.00949135
0.00709098
0.00619796
0.00620489
0.00826681
0.00351307
0.00185907
0.00735701
0.00308772
0.00942056
0.00785887
0.117843
0.0011825
1.07187
0.011662
0.00120673
0.0173465
0.00295738
0.00132058
0.000378523
0.00295069
0.00771339
0.00758923
0.00651276
0.00832018
0.00732266
0.00712491
158.854
0.000907539
0.00373651
0.00671597
0.00648563
0.00091277
0.0034304
0.0175109
0.00573292
0.00563803
0.010525
0.0030212
0.00250153
0.000104764
0.00297721
6.98185e-005
0.0055702
0.00920884
0.000344708
0.00893849
6.81992
0.00365913
0.00136185
0.00933162
0.00492043
0.00676983
0.00612498
0.00760971
0.00285418
0.000251252
0.00226252
0.000983841
0.353285
0.00120701
0.00408832
0.0105095
0.00436464
0.0036687
0.00546384
0.000412843
0.00189165
17.7253
0.00413734
0.0103809
0.00709639
0.00384169
0.00157784
0.0422373
0.0344034
4.11605
0.00558077
0.0110247
0.0019653
0.00896826
0.000942378
0.0111219
0.00170105
0.00301423
0.108737
0.00806513
0.00922373
0.0100829
0.0048023
0.0283222
0.000311696
0.252716
0.000262822
0.00279945
0.010171
0.00979683
0.00636927
0.00939615
0.0028172
0.00213218
0.00404198
0.0103695
0.00580141
0.000895399
0.00252763
0.00631933
0.00278375
0.00850859
0.000686846
0.00361224
0.00116664
0.00565062
0.00730845
0.00476885
0.00808582
0.00656114
1.55768
0.00185033
0.00489464
4.72939
0.0195402
0.00296528
0.173285
6.59477e-005
0.00502791
0.00715708
0.161454
0.00560502
0.00707487
0.0111576
0.00747122
0.00299393
3.89358
0.031361
0.131832
0.00299585
0.00359609
0.00260585
0.00984871
0.00568272
0.00938086
0.00921295
0.00357308
0.00830745
0.004143
4.42315
0.00626817
0.0020045
0.00634492
0.0082611
0.00930234
1.84491
0.00155919
0.0025616
0.00180907
0.00324943
1.77976
0.003242
0.183703
0.00808012
0.00868652
0.00125452
0.0138766
0.0107504
3.68646
242.439
0.00367393
0.00298095
0.00606713
0.00365912
0.00899739
1.0042
0.00394673
4.45268
0.00646122
0.00491035
6.45725
0.000583835
0.00201941
0.00794443
0.00115404
0.0029809
0.00424767
0.00687767
0.0071757
0.00367803
0.000465522
0.00160826
0.00222344
0.00298353
0.0019586
0.015125
0.00828122
0.00745806
0.00954231
0.000922264
0.36545
0.00745964
0.00556273
0.00502348
6.71019
0.00621561
0.000185932
0.0554128
0.00605309
0.00271082
0.00300495
0.00479023
0.052305
0.00889949
0.00554138
0.00193915
0.00464578
1.85077
0.00778569
0.015377
0.00471767
0.00519706
0.00489679
3.44802
0.0531775
0.000275589
0.00199232
0.0060557
0.00311299
0.00813605
0.00299886
0.00150294
0.00357339
0.00138332
0.00574937
0.00024647
0.00532773
0.000165995
0.00219646
0.00607902
0.00630197
0.00441228
0.0111263
0.0035538
0.0103648
0.0515265
0.0086303
0.00918298
0.00262941
0.00382868
0.00667946
0.00483166
0.000863749
0.000835596
0.00745987
0.00609959
0.00960828
0.00300873
0.00349868
0.00668206
0.0105798
0.0101808
0.00267802
0.00848933
13.7907
0.00112943
0.00591807
0.00427926
0.00304109
0.0081636
0.00389333
0.0556941
0.00307237
0.00244879
0.0105704
0.0268898
0.0057107
0.00555602
0.00260804
4.03299e-007
0.00682478
0.00822829
0.00105068
5.72666
2.21609e-005
0.00276161
0.000341306
0.00180495
0.00434029
0.00574222
0.00139536
3.42232
0.00559516
0.00953229
0.00489654
0.000332955
0.00495176
0.00116194
0.0062755
0.0082718
0.00143109
0.00875084
5.18544
0.00588656
0.00601274
6.56926
0.000182083
0.0038078
0.000164485
0.009696
12.6508
0.00851369
0.00387004
0.00556295
0.00607137
0.00532162
5.06475
0.00596434
0.00282582
0.00720617
0.0042764
0.00303992
0.00517479
0.00586776
0.0049817
0.00261577
0.010939
0.00163927
0.00452667
0.00220186
0.000457976
0.00343208
0.000109879
0.00240013
0.000469323
0.00674307
0.00741434
0.00187157
0.00228104
0.00620096
0.00754303
0.00131847
0.0260577
0.00610213
0.00651226
0.00162026
0.00617357
0.00858922
0.0104575
0.00974926
0.0107488
0.000888052
0.00379356
7.7633e-007
0.00916601
3.8687
0.00419879
0.00378757
0.00921598
0.00646338
0.00853558
0.00192781
0.00336394
0.0020919
0.00761196
0.00978822
0.00760928
0.00291733
0.00854079
0.00188244
0.00655139
0.00549256
0.00883099
6.78312
0.00365089
0.00471599
0.0055544
0.0030378
0.00233491
4.29135
0.00440399
0.00235579
0.00627813
0.00285169
0.00142964
0.00342687
0.00175353
0.00529015
0.000719711
0.00849522
0.000606754
0.00966067
0.00303594
0.00450302
0.0106444
0.0070508
0.00481854
0.00967349
0.0236614
0.623984
0.00556484
0.00872144
0.00379501
0.00300985
0.0067784
0.0103941
0.00340866
4.50372
3.30207
0.00292723
9.41488e-005
0.00794193
0.00302207
0.904955
0.0428354
0.0323144
0.00142652
0.00974203
0.00613605
0.00831139
0.00934412
0.0017597
0.00896429
0.0209617
0.00588954
0.00490174
2.37251
0.00552792
0.226098
0.00506359
0.00201569
0.000151309
0.00604979
2.35131
0.00268696
0.00837791
0.00848675
0.667418
0.00835564
5.43939
0.00188611
0.00368886
0.00828405
0.00520598
0.003134
0.00842222
0.00408778
0.0070609
2.60687
0.00552407
0.0028516
0.0100256
0.00106453
2.78454
0.00378455
0.00581352
0.00977136
0.00747223
0.00388263
0.00129683
0.00357895
0.0141161
0.00796703
0.00789226
0.00818606
0.0069017
0.00622674
0.0071046
0.00280098
0.00590833
0.00305171
0.00267105
0.00812973
0.00279513
0.14011
0.00722741
0.0043917
4.15119e-005
0.0219341
0.00354153
0.00575246
3.45742
0.00281617
0.00798662
0.00161802
0.00687193
0.00831586
0.00633946
0.00682682
6.41899
3.57437
0.00307833
0.000857932
2.4392
0.00684598
0.000589065
0.00319256
0.00310016
0.00752488
0.00391724
1.05908
0.00410235
0.00271216
0.00749289
0.0354667
0.00860358
0.000760411
0.0106733
0.0296175
0.00770135
0.00193206
0.00490049
0.0218005
0.001355
0.00162102
0.0248932
0.00588474
0.029849
0.0019744
0.00599336
0.00327418
0.00279129
0.00836527
0.00746893
0.000307619
0.00458608
0.00808482
0.000678192
0.00348406
2.84536
0.00755412
0.00227597
0.00615764
0.00435878
0.00368581
0.00578573
0.00315153
0.000985968
3.78071
0.00512384
0.00849301
0.00052894
0.00760917
0.00148713
0.000594377
0.00935714
0.00105992
0.00733183
0.00692455
0.000915879
0.00818072
1.13731
0.0098092
0.0027386
0.00152476
0.00449876
0.00748663
6.96308
0.00260196
2.26909
0.00785637
0.0147558
0.00650293
0.00612537
0.00582926
0.000565784
0.00324976
0.00638527
0.196354
0.00664977
0.00185287
0.00483503
0.00555064
0.00119146
0.00657369
0.00221516
0.0192899
0.0124645
0.0151895
0.00333856
0.00809008
0.00293069
0.00284526
0.00480388
5.43483e-005
0.00749624
0.00524744
0.0026298
0.00489565
0.000115696
0.00319084
0.00198106
0.0033137
0.0225773
0.00583294
0.00464313
0.00294444
0.0102494
0.00681098
0.00562658
0.0178912
0.0306464
0.00597165
0.018868
0.0067429
0.00581949
3.29914
0.00529281
0.00428633
0.00539179
0.00595915
0.00892657
0.00604438
0.00332799
0.00202492
0.00526775
0.000934356
0.00569337
0.000751147
0.00677359
0.0106158
0.00736945
0.00159646
0.00366571
2.9922
0.00623857
0.00161606
0.00410777
0.00263407
0.00914074
0.00317633
0.00217153
0.00300214
0.00551574
0.00163273
0.00845408
0.00465585
6.25063e-005
0.000759606
0.00210591
0.00325588
0.000553252
0.00694198
3.94694
0.00302768
0.00162454
0.00639355
0.0070791
0.0084199
1.88618
0.0096959
0.000219691
0.00579946
0.0036322
0.00335597
0.00322593
0.00412275
0.000506987
0.00964649
0.00508533
0.00839359
0.120865
4.94942
0.00816435
0.0430769
0.00731303
0.00315033
0.00572742
0.00177059
0.000357703
0.00396377
0.000140346
4.38527
0.00752371
0.00330702
0.00357937
0.00786254
0.00822204
0.00855885
0.0187387
0.00803762
0.00280736
0.00261256
0.00671572
0.0037042
5.89412e-007
0.00963531
0.00360153
4.35298e-007
4.51658
0.00116329
0.00148681
0.00402651
0.0102506
0.00213089
0.00658957
0.00147892
0.00552011
0.00326026
0.00370282
0.0045681
0.00210133
0.00526766
3.09911
0.00937834
7.06342e-005
0.0515715
0.000177434
0.00356514
0.00267027
0.00646993
0.00154491
0.0102547
0.00797534
0.00335331
0.00945987
0.0018524
2.01942
0.00302758
6.38223
0.00241739
0.00431936
0.00173531
0.00878451
2.2613
1.50691
0.00604313
0.00763661
0.00312177
0.00989207
0.00351504
0.00997394
0.00939974
0.00254068
5.04963
0.00207671
0.00527563
0.00657292
0.00802434
0.00328436
6.18836
0.00651481
0.0110678
0.0105939
0.00347074
0.00568916
0.00734313
0.00135103
0.00122633
0.0135683
0.00315277
0.0034863
0.00849667
0.0276093
0.000201828
0.00958403
0.00194173
0.0067278
2.90071
0.00352056
6.32834
0.00635978
0.00547997
0.0147806
0.00556621
0.00206921
0.00807872
0.00256043
0.00634102
2.1565
0.00106516
0.00676653
0.00535333
0.00133705
0.00329677
0.00251516
5.38742
0.00578725
0.000625886
0.00259047
0.00888346
2.62884
0.00471276
6.43451e-006
0.00525443
0.00609644
0.00259949
0.0081374
0.00815738
0.0342468
0.00300002
0.00801349
0.00372484
0.000282921
0.00587287
0.00289246
0.00422891
0.0342186
4.20234
0.00182885
0.00381686
0.00195446
0.00174628
0.00127985
0.00668435
0.00635983
0.00571796
0.144778
0.00728179
0.00539129
0.00123752
0.00404834
0.00287714
0.00410692
0.00666663
0.00142143
0.00271917
0.0413739
0.00124301
0.00127696
0.00356983
0.00210444
0.00226268
0.00737034
0.00989431
0.00126889
0.00472215
0.00530328
0.00758162
0.00714255
0.00494705
0.0159079
0.000155322
0.466438
0.00116511
0.00602066
0.000794914
0.00609407
0.00665265
0.0465657
0.022473
0.00133422
0.00904196
1.62315
0.0100908
0.000997089
0.00350938
0.0042837
0.000293515
0.00436517
0.00944337
0.002215
0.00628826
0.00870603
0.00580892
0.0317332
0.00246105
3.16108
0.00815625
0.00856643
0.00348716
0.000659564
0.0341815
0.0279598
0.00336122
0.0482779
0.00391677
0.00397948
0.00395552
0.00130216
0.00667361
0.00271326
0.0341357
0.00649254
0.00803818
0.00386846
0.00624087
0.00812846
0.00920347
0.000978024
0.00682353
0.0028119
6.39204
0.00577485
0.00586603
0.0026888
3.92916e-006
0.0102631
0.00714594
0.00906371
0.00301348
0.00038119
0.00617723
1.2525
0.0081665
1.18611
0.00584677
0.00556492
0.0156614
0.003108
0.0065378
0.00627457
0.000164559
0.00671163
0.00306913
0.00654605
0.0057293
0.00299159
0.00802106
0.00078092
0.00490409
0.00301834
0.00269955
0.834908
0.00854398
0.00439823
0.00277874
0.00519502
0.00280851
0.00235281
3.99585
0.00884175
0.000179042
0.00143323
0.0081339
0.00142295
0.00527367
0.012229
0.00131769
0.00740054
0.00354209
0.00984787
0.0123374
0.00303842
0.00243953
0.00470954
0.00353287
0.00128896
3.15861
0.0057323
0.00652519
0.00226567
0.00608648
5.44695
0.00549301
0.00651597
0.00695893
0.0237853
0.0103753
1.15425
0.00520715
0.00353939
0.00638769
0.00335689
0.000857704
0.508802
0.00360611
0.00595152
0.00987299
0.000324284
0.00252887
0.00354217
0.000161598
0.00209467
0.00562132
0.00852975
0.0111528
0.00116688
0.00666063
0.00367151
0.003113
0.00496111
0.00638335
0.00475936
0.00299614
0.000588717
0.00385805
0.00367437
0.250892
0.00347277
0.00156392
0.0013716
0.00624947
1.86753
0.00421498
0.00319408
5.95687
0.00848847
5.79796
0.000865551
5.00985
6.64188
0.00163181
0.00560777
5.36552e-007
0.004949
0.00637734
0.00269087
0.00671882
0.00329021
0.00550818
0.00814085
0.00255104
0.00592445
0.00186644
0.00289711
0.00148523
0.00199041
0.00149438
0.00184719
0.00621513
0.00887124
0.000633656
0.000458761
0.00386368
0.00188234
0.00487559
0.00683488
0.00137719