/*--------------------------------*- C++ -*----------------------------------*\
| =========                 |                                                 |
| \\      /  F ield         | OpenFOAM: The Open Source CFD Toolbox           |
|  \\    /   O peration     | Version:  dev                                   |
|   \\  /    A nd           | Web:      www.OpenFOAM.org                      |
|    \\/     M anipulation  |                                                 |
|*---------------------------------------------------------------------------*|
|* OpenFOAM for Windows 18.02 (v1)                                           *|
|* Built by CFD Support, www.cfdsupport.com (based on Symscape).             *|
\*---------------------------------------------------------------------------*/
FoamFile
{
    version     2.0;
    format      ascii;
    class       volScalarField;
    location    "1e-005";
    object      p;
}
// * * * * * * * * * * * * * * * * * * * * * * * * * * * * * * * * * * * * * //

dimensions      [1 -1 -2 0 0 0 0];

internalField   nonuniform List<scalar> 
23640
(
1823.41
1686.37
53.5016
1.13773e+006
2781.31
16566.5
1635.65
5448.79
7199.39
14520.8
1.04936e+006
3588.6
3217.17
2219.04
25298.1
14976.5
779.694
703386
902430
9422.34
1.00938e+006
34.966
1.00308e+006
992152
3534.63
2506.7
83214.2
13633.2
390.77
2891.01
3527.82
1.41083e+006
1.01082e+006
4862.85
9604.62
23130
789.703
731.142
137.658
1.07506e+006
3700.33
8100.18
2500.45
114.453
1.14458e+006
114832
1690.05
1754.82
14026.8
5729.72
1.27752e+006
728974
19458.5
779.628
1.1379e+006
12209.4
17616.7
2932.34
787.874
1.15075e+006
3577.86
119267
1.11301e+006
759571
911.204
755105
12448.5
3258.99
653144
2657.27
1.10298e+006
4800.82
905143
668.69
15066.2
1.40233e+006
12131.4
3297.26
909453
1.10697e+006
142472
26945.6
1028.97
1019.42
879.465
12211.5
724545
1.05253e+006
924908
26519.8
983.89
3332.54
12607.1
909327
715496
5390.94
776157
15918.5
7943.85
12626.2
15953.9
751.326
991951
571.949
6813.01
670.617
1.13708e+006
521.414
3709.39
7284.77
3119.88
907669
5689.81
3545.38
64849.3
399.062
25452.7
2476.39
1488.32
3609.09
1.00706e+006
1.14318e+006
17288.3
1.17273e+006
30739.2
1.04604e+006
1.30837e+006
32654.7
15913.3
3107.03
21877
15988.1
3328.32
48426.2
582.186
1.05296e+006
1.03864e+006
3389.71
1.04452e+006
808281
7861.82
18142.7
893454
1.05002e+006
889366
5134.12
1.0676e+006
1.07789e+006
1009.18
717678
5997.15
18309.4
1098.55
1.12362e+006
16273.8
449.594
1651.55
5139.71
11318.2
81229.4
28107.5
13678.8
22903.1
9857.33
397.365
325.053
1.12318e+006
74050.1
1.13767e+006
15437.3
1770.49
54654.4
14387
3517.9
1.12393e+006
1.12689e+006
3131.34
58080.8
1.10861e+006
3262.87
1.14503e+006
9815.78
3413.19
10468.6
491.504
364172
29616.4
8871.79
1.15308e+006
11454.6
10900.6
1.05467e+006
1.14614e+006
1091.59
581.707
1.06812e+006
6860.57
21515.3
10454.3
55030.4
978645
93.9731
848.683
8134.53
937960
873.389
10422.7
1.00505e+006
37770.1
1.12417e+006
2471.45
3124.04
3919.5
883.021
19216.6
5875.86
1944.35
9029.9
9700.97
80.7587
3988.04
1.04787e+006
980608
3645.3
990428
5548.11
2661.72
1.15228e+006
73.4011
987.105
2029.68
494.065
7312.82
2992.2
4987.77
25916.1
1.1013e+006
5922.04
1004.55
133639
17875.7
60502.4
3808.55
8591.5
1.1368e+006
709.179
4418.52
12445.9
1.10844e+006
1.02932e+006
1.1522e+006
2444.39
1706.5
1.12479e+006
822.542
1.07647e+006
34.0889
509.638
1.14137e+006
1.1411e+006
1.1422e+006
1924.38
14880.1
3751.5
381.833
2496.19
55283.2
8403.44
827.743
688599
9109.48
194.811
1.00494e+006
1.15443e+006
32947.9
5210.77
501.605
1.14705e+006
763639
3390.23
1.04931e+006
169.926
346068
1.05919e+006
12452.6
120968
8075.56
24738.3
1283.23
1.05662e+006
7403.43
612.564
5598.8
10020.1
1.04177e+006
4992.64
3094.33
751.542
2881.35
1189.37
79374.1
771749
1.15222e+006
4032.47
1.02903e+006
304.536
18366.2
76828.4
1.14147e+006
897275
489.854
28022.1
1.1263e+006
905252
973321
51330.5
8300.68
49.2681
729135
14861.5
1930.2
5080.88
9822.57
13352.1
596.069
23925.1
1.1621e+006
5300.19
2824.6
1.3486e+006
350193
5223.22
10628
17829.5
6147.76
4119.66
9776.59
8629.25
5098.82
2889.75
10661.8
833812
15574
1.15747e+006
1.05685e+006
675078
92163.2
3528.95
5222.29
7443.62
1.14082e+006
20917.2
480.31
2642.67
9527.89
377.675
5125.04
1108.01
1.11328e+006
1.05078e+006
28474.5
1.02259e+006
804034
1080.83
5514.04
114.622
177.967
10076.4
909392
3322.14
43105.4
840698
487.716
977643
30416.8
486.17
1.16705e+006
42.6593
5391.88
56577.3
898431
834025
5947.86
829347
6954.65
578.466
14294.5
283.655
1.06986e+006
187.158
648031
20056.4
11462.1
18747.4
10187.9
1.02831e+006
1.14719e+006
790.882
1672.13
78809.4
1050.72
1.12342e+006
19544.6
218.727
3357.21
2596.34
1.14475e+006
421.881
19574.4
11240.8
21103.9
1.10799e+006
1.13296e+006
8677.11
1.06836e+006
3450.66
111543
3875.72
13778.6
6743.24
1.14055e+006
656777
2841.55
22002.2
16559.1
257.382
1.16241e+006
20002.4
1.02485e+006
6377.78
550.046
1.14482e+006
1.12269e+006
997729
30474.7
1.05886e+006
46754.7
25098.2
101431
1.16501e+006
19058
1.11424e+006
23338.8
13862.2
254677
10378.3
88013.3
9504.81
1.00011e+006
10157.1
1.49243e+006
12314.3
1.12597e+006
19296.8
597215
600.516
1240.74
18461.3
1.14296e+006
12422.9
13778.8
12268.5
5650.4
1.51185e+006
20723.7
3476.18
20490.1
14881.6
12027.6
11329.7
20277.5
5990.02
1.14338e+006
54.8956
1381.66
126990
2316.77
1.45815e+006
27136.8
1.26566e+006
9125.71
380.764
10031.7
13947.7
25536.6
34319.3
1.00379e+006
132.309
3467.09
1303.26
53046.2
1.276e+006
2836.75
1.02249e+006
5017.1
2456.5
11451.1
318758
45082.8
967.245
5177.79
1.09375e+006
243.153
4662.14
6434.83
806.479
9148.77
419.885
566.961
2990.97
124439
1930.08
13068.1
13243.1
988039
4115.05
5487.96
547.671
8922.81
1.07123e+006
22129.6
590917
1.44428e+006
27173.5
1281.1
5956.83
971230
12167.9
903233
785.367
2812.22
993517
33509.7
23764.7
13401.6
4006.84
18473.8
14016.6
515.115
4694.57
8879.41
6070.15
5270.63
2852.61
1106.2
2293.23
26649.4
906072
4097.98
3976.9
121603
2994.1
12399.6
79.8778
94938.8
3777.94
3817.21
55743.9
1.03704e+006
1.12403e+006
6809.76
1.06624e+006
4561.2
56754.7
836725
997417
13746.3
957008
86132.2
14527.5
1.52833e+006
2499.32
4906.94
535.949
1759.34
907390
20083.6
12513.1
8895.86
1377.05
1.14444e+006
9130.2
1086.84
12111.2
911431
935678
7210.54
8645.48
2394.35
959537
1.10945e+006
3962.76
3434.81
8908.31
805.926
740709
8669.52
47414.2
5936.63
11737
1.06622e+006
1.00473e+006
1.14212e+006
30506.7
2977
9727.37
16397.8
1597.63
4448.75
967973
4069.33
5956.26
3674.23
4555.79
17301.7
13935.2
15533.1
6006.59
1025.08
1.18027e+006
934535
3136.42
2574.33
1.11119e+006
2582.12
709512
2210.42
984106
5357.65
23475.6
141.565
9243.59
458.387
3187.15
83.7915
1.14217e+006
5388.67
2196.19
780.449
25035.9
8728.48
17071.7
1.06759e+006
3622.06
9683.78
9019.1
979833
44669.5
543.631
3520.52
15885.7
1.15141e+006
889693
942.214
8901.44
1.15999e+006
44769.6
1.00692e+006
3136.58
6863.16
9831.28
91607.2
382.012
25747.1
34.8229
26.8506
2784.59
1.15619e+006
911926
13488.4
1.15058e+006
6831.18
2676.28
22012.7
779510
982.641
4162.94
3071.11
1337.39
1.09547e+006
1.15351e+006
11138.6
3868.91
119.039
4956.17
552.234
1.14284e+006
4520.4
132661
1.15361e+006
384.724
9854.07
573239
1772.22
571170
606.177
24527.4
3563.15
1.04138e+006
5553.96
1.46495e+006
768066
5764.64
1.00588e+006
727.782
3546.89
1.07217e+006
8840.17
1.08781e+006
7623.45
916437
1.05341e+006
33877.6
144.245
30.8629
24154.8
20175.4
1530.66
992043
24820.9
10967.8
120863
8846.55
122.772
15250.5
57.0582
318.462
700.062
6015.8
1.13297e+006
6006.45
886.374
1.09698e+006
1.05984e+006
405.748
5211.09
22994.2
3490.37
1.09895e+006
7722.83
7631.58
4600.06
1.10053e+006
29671.5
542.981
413021
1070
777759
413.569
4031.74
418034
187.683
4929.15
3598.42
3527.41
1.45337e+006
53155.6
538.449
707011
1.09161e+006
1625.81
795.543
545285
10291.6
1.14045e+006
16881.3
1.07029e+006
6598.15
847791
14758.8
24797.3
8171.88
102112
5804.54
940459
3123.43
1.13421e+006
11669.7
618579
10217.3
7893.11
1.19592e+006
32.3555
10704.6
16964.6
1.28166e+006
43386.3
514.426
9925.86
5905.41
59.4892
21667.7
871037
5638.07
210.468
1.036e+006
9007.79
1.10663e+006
1145.23
1.07695e+006
9417.65
20493.8
4730.43
2994.76
9859.68
1.15517e+006
1510.25
911745
1.08475e+006
3720.45
13296.5
979299
2854.04
1.14608e+006
11220.1
13050.5
1408.38
787074
25892.7
3578.79
11444.7
15657.6
874975
14594.2
26532.6
1.0798e+006
23507.1
1262.38
8667.67
555009
3938.01
52454.4
764.624
776908
5741.03
6462.67
15154.2
273055
43.9279
3286.66
779351
12953.5
1.03242e+006
4566.83
383.354
561.591
1.12513e+006
4012.95
1.08769e+006
2950.78
3453.19
3512.18
23194.8
3970.02
881378
1.52243e+006
9330.9
19519.9
9455.25
18226
7653.34
1830.96
5328.47
1.13814e+006
122906
3354.72
1.0291e+006
743.891
1.14434e+006
24559.6
29355.9
1.08897e+006
1.11224e+006
1.03379e+006
1.49695e+006
389.338
1.15438e+006
153577
629.117
178.598
7557.23
2642.77
774661
3563.62
30920.5
15545.6
1.10693e+006
22216.5
1.1422e+006
4779.97
38.5378
46445.3
3662.16
21555
1.08231e+006
14674.2
11031.8
8579.11
74.8345
979879
971106
13367.5
2303.44
3580.46
564082
40.5441
21737.4
8983.36
9672.33
414.717
44553.6
189.944
15849.3
14709.9
1.16501e+006
5114.16
159526
1.13546e+006
950977
1.08699e+006
21778.4
839778
2864.29
1.07264e+006
300.345
21485
557.208
11140.9
13010.9
1.43423e+006
771959
908139
78.4334
5999.58
1.14419e+006
29811.6
25129
4168.14
7251.35
1.10002e+006
12206.9
137.819
12986.8
17930.3
1.08884e+006
18014.9
1.08731e+006
591920
507.234
1656.34
2992.11
1.04627e+006
491.82
25208.1
1020.55
2636.58
1.13355e+006
73.4384
1760
493.633
5674.29
936.802
939491
2461.39
3487.78
8230
2339.9
1.16059e+006
831.997
2298.21
1.00782e+006
1741.92
1.05274e+006
8208.09
16977.9
2969.36
4589.69
25203.4
3548.89
1.10487e+006
15817.8
1223.25
3758.67
2402.74
2498.17
909013
79.784
3309.67
1.05444e+006
900516
2149.88
1.13958e+006
4726.32
4646.56
1.09087e+006
10283.3
1.15695e+006
794.695
7446.36
22381.1
16121.3
2551.88
625777
11828.8
27998.2
107667
29858.6
478.906
9732.98
23063.8
303.286
6585.59
805.507
1546.3
1.02384e+006
19837.7
6310.08
1468.64
6531.97
16779.2
917098
1.15406e+006
91.035
1.0432e+006
15575.2
409.331
1200.87
1.14214e+006
790305
2521.61
849551
14389.5
5845.32
6839.33
783.343
7011.28
3434.21
26128.9
9598.48
1440.64
2750.86
1.08646e+006
868595
1437.44
726.641
84001.8
5083.45
128246
1.14468e+006
6020.43
1569.75
3498
1.14448e+006
1.03872e+006
913392
5307.32
702267
4604.83
22130.2
8139.31
12921.9
979254
1026.28
1.11121e+006
2548.12
2562.8
69.4676
62267.1
328324
21698.1
1.12144e+006
167.116
13370.1
177103
134870
5101.84
43674.3
3478.38
1033.54
1.03897e+006
2662.06
19468.2
7922.25
236754
14589.6
25772.9
11667.5
924216
1.12192e+006
3669.8
12412.4
4115.74
2349.42
16537.2
65558.6
3156.71
3258.8
1045.06
26278.7
2063.78
7473.82
42.4011
46.8211
1.13253e+006
570.452
5511.33
1.02096e+006
863.583
11025.5
149139
875996
8482.02
3385.37
3403.5
4711.76
4906.59
66701.7
398911
7786.39
21168.8
1.12519e+006
3131.18
1838.5
387.203
999.65
1.15577e+006
6615.91
6589.14
6595.4
1.14448e+006
921017
14363.1
14237.7
1.12686e+006
1.48806e+006
475.637
139.817
5787.36
9841.63
375.715
768915
11030
361.113
1.05671e+006
8197.71
35188.3
1.1307e+006
1.14636e+006
519.075
199624
20998
803.545
4033.37
6201.26
5284.88
603.816
295871
806754
21607.4
1.02822e+006
4584.87
12135
761789
877.221
17552.7
14190
852792
919949
9187.12
160610
11525.5
12765.8
14508.7
13700.3
12692.9
10694.2
6247.61
926742
9136.83
3271.64
1401.85
901430
946251
399.936
669.336
966408
136320
358.301
1.01552e+006
1995.06
817542
4748.12
9727.12
5798.27
3476.16
2177.33
601.868
1.52331e+006
6218.97
1.06759e+006
2441.73
11429.9
1.06987e+006
4519.3
482.453
21312.3
13825.5
1.04004e+006
12815.5
1.05886e+006
279.967
4344.86
5545.18
1924.07
2150.14
2423.48
3430.33
426010
3256.55
43.5858
1962.72
14885.8
5581.2
650542
1.04326e+006
3049.99
1.10195e+006
400411
1.14423e+006
13922.6
25598.9
1899.5
858496
4625.94
48.1134
2064.13
2436.93
1536.64
61.3966
5283.91
3529.29
10840
13711.6
1.13863e+006
21852.4
133.043
5053.58
728126
9517.38
9628.76
1.45225e+006
22903.9
9816.93
515.504
11199.7
28443.3
2757.03
2397.29
1583.72
12959.9
1.07189e+006
12811.1
823554
164890
20677.4
6117.79
3012.1
35.6842
327.974
7262.93
1.10479e+006
115.297
21724.5
70.6001
5142.95
1.08942e+006
255886
1.07079e+006
6963.41
5472.44
23120.4
679243
3647.42
1.0262e+006
27518.3
3782.41
1223.12
3653.29
26206
9423.43
3370.67
26496
13147
5470.53
12180.6
44430
895650
1079.01
617.218
5748.45
2121.36
1860.11
17948.8
3408.61
1669.25
4710.47
1.49308e+006
11585.3
12561.7
9024.5
895858
1.04365e+006
1.08433e+006
6977.1
12846.7
20410.5
976886
1574.27
1488.6
1041.35
8068.03
299.412
573.169
12374.2
352.083
20111.7
366.125
1.07676e+006
95290.7
14011.9
3392.13
2530.35
9958.12
3298.85
1.136e+006
6878.28
77967.6
2447.77
1.10915e+006
1.115e+006
401.367
155.221
4721.2
50.8972
775.473
7701.69
16130.1
1.02855e+006
15795.5
1.12384e+006
9726.8
5210.14
2217.16
11222.6
6506.82
1.38144e+006
1.10372e+006
23257.6
47173.8
18223.1
17360.6
901400
3626.03
2011.64
4940.58
184.337
1.45995e+006
4485.56
1.13746e+006
1333.93
600.403
422.038
11182.1
3425.85
10693.8
11234.1
899007
1.10634e+006
50.9448
340.933
10446.6
8892.96
3571.99
108579
10267.4
66385.7
8155.91
59288.3
1.08176e+006
84187.6
3135.49
483.899
16290.6
16317.7
45967.4
2453.7
15208.2
90243.4
7621.51
136148
7912.01
418.221
9704.7
951701
742483
935157
209.188
1.0709e+006
708963
25976.2
10344.3
486.621
18801.8
183.24
1.07739e+006
3610
634.104
2101.14
11817.8
3098.34
1.05682e+006
7286.78
49394.8
1.12331e+006
12108.8
9502.99
21895.2
9004.95
11997.1
15012.4
2753.17
3258.17
1473.66
12484.5
882.659
53.9912
21808
815.656
954081
325.858
8206.56
3961.56
15812.4
10248.1
2306.8
90.5363
64.4059
5175.76
986275
20847.2
2755.61
1.15478e+006
3385.29
6651.21
3869.12
8914.63
630803
12309.8
1.14473e+006
1.15448e+006
2523.38
50.1202
1.50968e+006
2967.98
4515.81
25006.7
1.10513e+006
2876.44
11602.7
13207.4
10313.4
3005.97
20136.9
16256.2
1.14846e+006
882824
2630.15
681083
809950
96.3142
9446.61
809979
1.08156e+006
1.10904e+006
26431
2104.03
1.15518e+006
14842.4
12284.9
2648
775058
1.03227e+006
809.327
1495.75
1952.1
2472.82
751180
2205.59
2508.09
11242.4
1.11661e+006
40772.6
3501.05
1.11901e+006
1.14318e+006
1.12462e+006
1.15138e+006
373.693
14638.1
947516
1.01394e+006
5716.57
16757.1
1588.29
4420.88
784288
9731.48
44036.1
918913
1574.54
1.1371e+006
1.14714e+006
1.12713e+006
1.50446e+006
903.125
1065.06
3387.43
5930.16
284585
207561
482.102
98.3015
18955.6
10768.6
3170.74
33464.5
3555.45
1.11679e+006
7819.77
3007.62
3920.26
159.067
15104.3
1.07346e+006
1357.45
1893.68
1.16067e+006
1.12339e+006
20676.7
3489.26
3277.34
16301.8
1367.58
1705.3
12785.9
22234.5
1.0655e+006
1.27707e+006
1.13908e+006
10847.6
27096.7
19700.4
1.1741e+006
9927.69
10761.5
9853.39
873540
2448.88
1.08758e+006
862666
19792.1
20375.2
824.351
32.9469
977163
6317.38
3809.13
1.53273e+006
2422.48
10708.2
12795.1
1.14188e+006
6426.93
2207.68
870208
6284.33
104453
831.216
928899
16760.9
1.13258e+006
3499.31
9185.64
25828.7
6918.63
732064
27393.9
4308.21
10635.6
33327.4
4573.83
1.09334e+006
34149.3
746602
10431.8
12618.7
1464.26
10333.5
71723.1
312.579
12260.8
1.15086e+006
717201
23002.1
1.1056e+006
872.099
43898.7
2832.41
334467
831.775
10099.6
1.1183e+006
1.1164e+006
3417.94
6197.05
1.10947e+006
227.806
11099.6
5698
2102.01
8096.99
377.196
1531.54
6800.63
977638
8576.83
34934.5
1.09005e+006
30776.9
142.359
6333.68
4242.86
5915.4
1.29397e+006
21716.2
1.13405e+006
1.1571e+006
11724.8
3021.36
5627.58
1.1272e+006
1336.82
4612.77
14768.4
4673.18
1.11198e+006
403.414
11885
24596.8
1.13674e+006
1.10479e+006
21308.1
1.06492e+006
481.9
3467.04
1.11599e+006
818781
10202.5
1.15525e+006
421.092
87.6258
1771.31
86000.6
12761.3
1766.57
834977
2077.07
1.1598e+006
618.348
1078.39
2509.98
518.512
1.50164e+006
1.47124e+006
3614.3
873609
3172.06
2165.23
1.11305e+006
1658.67
47480.6
6226.89
4344.91
1379.17
11839.9
163.334
917058
5055.37
353.797
28067.2
7516.01
2758.95
27226.4
330.67
1.09364e+006
3289.11
1.17185e+006
19840.8
5290.61
1.07977e+006
1.10522e+006
968232
11291.2
990310
943767
8504.86
10880.6
1.51032e+006
1.08279e+006
46.4976
3116.69
985667
1.0086e+006
4462.78
1.11303e+006
1.02072e+006
1.13876e+006
1.1018e+006
872.9
99.7078
11595.6
5139.8
12307
60298.2
972925
17731.4
1.01072e+006
319.921
537.693
7575.94
832618
1.06111e+006
11796.2
2796.3
1.03661e+006
1943.45
15833.6
13984
1160.64
1.1632e+006
5892.25
1.09409e+006
74139.7
6388.96
582723
9390.5
13774.3
3346.78
1.51821e+006
5882.61
402001
3919.46
1622.62
26418.8
1.13823e+006
1.13365e+006
315.369
3739.92
744685
8750.24
23289
1.0886e+006
590099
666568
9906.4
166.997
936767
216649
1.09699e+006
3990.87
1.14373e+006
758533
2895.64
36.8878
1451.97
45051.3
1.11142e+006
14177.2
675423
20689.7
2015.17
14104
84257.8
1666.87
12916.9
3528.65
12485.7
22838.4
988530
13715.5
17812.2
1.0846e+006
3864.04
8870.98
880998
27562.2
12914.2
3643.37
3153.32
6777.04
1009.79
469.717
8986.1
1.14734e+006
11539.7
379.726
11427.1
3430.13
13139.9
6300.04
601103
118179
5527.8
632.986
158.8
1.14637e+006
20917.8
4134.14
3342.65
878820
1385.25
1.09137e+006
1.10582e+006
142.417
1.07282e+006
1.13512e+006
630.761
2107.08
1.06171e+006
11689.8
4213.26
123.656
223.963
54.2426
88.029
56.866
49.7998
224.479
104.759
143.002
7321.35
52391
2886.13
383.735
778583
664.432
1.49692e+006
2997.54
367.948
4857.34
120.913
959929
675.992
11057.3
1052.58
9464.38
16804.1
326.165
1.0755e+006
3949.69
6117.38
11253.9
12108.2
134446
6140.26
7415.31
65.3988
11657.5
3259.1
947547
14469.3
39568.7
1.12059e+006
4241.51
5466.86
3433.52
143.535
458.415
3498.56
3160.01
950.1
641.51
1.08725e+006
17421.2
1.26212e+006
5426.95
690102
1.12732e+006
2853.62
1.20638e+006
31448.4
3866.63
49.6877
67500.7
585.142
958641
1.11882e+006
2683.98
1351.64
2830.39
3511.73
1.13965e+006
827480
16477
3997.98
856892
9460.35
384.028
982567
2624.86
16837.2
9038.98
14941
28744.4
970324
4411.8
21531.3
4367.9
3435.44
598418
6006.69
1.08634e+006
1.15118e+006
985707
1.04663e+006
3526.68
263.926
6140.4
1.08072e+006
26864.7
23077.5
5455.03
1790.24
132612
61.1209
662.356
5765.12
769748
91656.8
9443.7
881500
1.51024e+006
6489.01
57899.4
1.06562e+006
1.12563e+006
892426
579.303
1.1411e+006
21471.7
12350.3
780409
1.12525e+006
1387.29
1044.78
1179.89
38.4569
5878.09
10428.6
1418.13
2114.17
8358.26
1.01363e+006
12325.9
22793.2
76464.2
1557.19
25910.6
3386.34
12132.4
1.11033e+006
16443.8
12511
5538.56
26120.9
4989.92
17625.6
28086.9
960421
2930.58
5593.97
1506.55
639.927
23363.4
55076.6
968655
830906
1.47564e+006
3629.02
1.09293e+006
2364.49
14982.5
977.117
965.935
3679.87
871.515
593784
13958.7
706363
4333.03
9310.12
6602.25
7716.15
1.10286e+006
16126.7
13599.8
1346.32
12201.7
182708
11593.6
1059.97
11914.1
11780.8
7826.19
26001.4
1.1177e+006
3369.26
5522.5
1.10518e+006
1.12793e+006
2897.41
9192.06
920640
58494.9
66696
1.09811e+006
904262
474077
137.749
11371.1
46.8204
1.03314e+006
564.275
16743.6
15698.1
25918.3
13986.5
312968
4754.61
18689.8
1.11217e+006
14595.9
889645
10428.4
896249
874430
13884.7
2847.94
1595.31
33292.2
370.847
1557.71
1904.55
985.329
16237
62096.4
899.602
1883.55
23562.3
7296.6
288.392
30437.9
9315.7
3329.55
713743
1.06638e+006
10449.6
15261.6
533197
1.10908e+006
17401.5
714429
7583.68
6288.11
893883
1.12328e+006
1.30527e+006
1266.42
67168.7
1.01304e+006
14449.4
821202
691010
9058.29
723.485
1193.18
4128.98
11454.4
10206.6
390.524
488.7
1.14077e+006
1.13164e+006
5255.48
1.08188e+006
12656.6
3887.44
105462
27124.4
13050.7
1.12001e+006
7662.86
13395.9
3571.28
1234.61
1.15961e+006
3727.12
1.0521e+006
1.10239e+006
2456.3
677.902
987.382
10453.5
924229
2935.22
10440.6
1.45973e+006
48.381
1.0101e+006
4048.83
974870
15208.7
174211
56820.4
4198.68
3476.92
5529.44
23024.4
1.1119e+006
11530.8
3401.84
29723.5
3762.82
150007
5739.82
6790.16
1615
655.793
1.12144e+006
965323
8690.01
10618.5
5764.13
5066.85
5935.79
17493.9
827463
518.826
7647.62
741021
3956.99
1.1599e+006
7420.49
5532.8
12637
1.12958e+006
6125.65
1362.34
3345.83
244.597
11470
5239.25
5792.03
9340.31
957.137
8246.42
585.284
3414.99
11365.1
20771.4
3426.1
3541.12
11678.3
537.499
532.341
7431.94
1782.46
774.734
1.10508e+006
1359.99
3383.42
1.13204e+006
18824.5
13817.5
1.08366e+006
1.13836e+006
11332.8
19882.8
443971
1.12747e+006
28036.1
1.10405e+006
1.21075e+006
9322.06
1.1486e+006
61.7445
3086.94
117.169
900.687
10761.2
141219
14130.3
5639.06
9976.61
1.13773e+006
6661.16
311.257
6395.86
2157.23
2205.13
63.9573
4546.77
3706.74
527.112
26393.2
391.018
1.06278e+006
1.07491e+006
35273.7
377.526
982617
972611
697920
1.099e+006
4902.81
6339.13
14873.8
102376
586.823
30733.9
22414.8
59.1949
2382.42
5239.27
462
4284.85
622.204
5776.06
1.11228e+006
2815.8
1731.16
1413.66
803955
19168.8
5325.23
1.14554e+006
3713.53
3114.15
506.529
1906.15
6632.71
119375
4200.05
1.1194e+006
1.15766e+006
1.1134e+006
373.839
275921
323.358
220.934
4076.84
11720.3
5006.03
4372.24
19344.8
1856.59
1.08223e+006
1091.28
11007
404.902
1.16457e+006
1388.69
17748.1
359.566
149102
4649.82
2066.84
1.12054e+006
1.15509e+006
88.8377
1.11713e+006
458.974
1913.79
3434.83
4699.64
13949.5
2292.81
3192.98
1.10791e+006
1470.93
21184.9
110518
12369.8
658.5
3038.99
86702.4
4729.82
1.08447e+006
10812.5
26522.5
1.04607e+006
3566.02
3371.24
3411.93
15199.2
1.04653e+006
1.04406e+006
347.588
756401
432.135
1062.33
1.106e+006
14138.2
18109.9
11301.6
13703.4
2057.74
8194.85
968962
221113
925.463
11120.8
3535.6
5099.96
244761
4061.02
1.3062e+006
28894.6
14382.5
3368.12
975.34
76.9577
2080.9
176.136
16951.5
903919
1176.69
9706.51
1.145e+006
767.451
899923
1.13732e+006
1.03183e+006
3859.25
2212.27
4537.63
15034
802258
10521.8
1017.73
6065.56
9265.28
483210
9027.56
11442.8
4020.13
1.12147e+006
927320
21244
5860.91
4343.52
1375.7
53.7723
161666
455.068
53.586
2887.64
6398.31
4847.08
15055.3
144595
11881.8
5053
7841.81
7339.77
600.967
4325.59
65488.5
17019.2
2181.81
698.055
100036
12731.3
429.396
15931.5
1.17061e+006
906510
5422.82
798595
1.10721e+006
6474.96
166.131
911311
13578.5
698.458
334.606
495.769
1.0482e+006
885374
926773
4822.98
3507.57
853.035
3320.68
6577.4
520.04
39539.6
38985.6
613494
1.06052e+006
9347.25
1441.85
49.8269
960461
3566.37
11505.8
421.234
463.789
9704.34
585279
682429
9002.08
10288.4
261771
15823.5
7099.16
1.10863e+006
391.944
11990.8
918914
1.13976e+006
12973.5
915103
26558
872753
359.622
421.746
1704.93
2713.28
1527.54
1.12563e+006
2331.53
43.3992
4334.39
7717.51
2139.2
310.27
11579.2
5691.36
8997.63
2957.19
1.04607e+006
14881.1
1582.88
1955.97
15478.5
216.853
1.05593e+006
598.335
9965.28
67.5668
6533.63
171298
113.555
1.02281e+006
967151
1.132e+006
106.724
3694.03
862.884
16652.5
2995.65
2488.93
6257.32
1.1306e+006
263.483
11748.1
8479.01
8846.91
3619.71
5717.49
865832
2759.84
805.776
430.36
8777.36
1501.13
5644.66
949.292
415.293
3563.93
6010.41
27041
2336.04
1.13653e+006
28583.4
1126.98
1424.15
4996.76
841323
629354
1.08121e+006
16435.3
474837
2676.8
9882.66
812797
3946.46
1.11078e+006
11118
3656.48
6417.09
3467.81
1.06683e+006
1276.45
4329.94
1.13867e+006
1.1213e+006
16654.3
1.11242e+006
521.647
1.08197e+006
12055.1
660.11
12567.7
23934.4
2559.69
446045
1.15524e+006
2172.02
54773.1
3198.57
1.1333e+006
3257.76
3402.74
260811
190984
738379
847.267
1.14014e+006
393.604
9037.34
3147.01
140.845
1234.78
1222.23
38701.1
5894.17
6921.37
1.14414e+006
11570.6
1.02785e+006
681255
607396
29914.6
352047
24599.3
4284.1
208.154
1146.63
2422.61
928108
4358.44
67.0785
426449
1.13474e+006
31912.2
4143.42
16260.1
2886
3630.76
9775.86
562.467
2508.24
2014.43
1.13256e+006
9653.06
9660.21
2185.12
148.726
3016.65
335.507
5077.12
1.06473e+006
148.018
4212.86
17489.7
958919
1419.17
109.415
449.354
18803.9
27959.3
3622.48
12244
2876.6
3296.34
631.574
3468.37
42145
26821.6
11772.8
18001.9
6466.9
1.09568e+006
14578.7
6383.25
29992.7
240439
1.11298e+006
11851.5
3290.47
6366.87
653.764
4477.19
1.49056e+006
1370.31
5049.75
1.0142e+006
1272.75
3561.36
1249.73
576986
1.09149e+006
1.14517e+006
1.08363e+006
1.23778e+006
1237.65
813492
9294.08
6600.1
40447.2
414.274
52939.9
174546
37616.3
1.04889e+006
22727.6
1129.86
14774.7
4568.43
10271.2
11068.6
1.10519e+006
6369.87
6209.28
879.822
13282.5
16760
2150.11
1.06498e+006
8176.7
790596
4411.89
222.631
1.15598e+006
488.802
1.05968e+006
2264.89
2049.22
697.315
2000.37
4575.86
401.378
10207.7
1807.29
14100.5
840.555
813.838
3398.3
2434.6
28.3931
1.06664e+006
2662.53
3746
1.04118e+006
329.246
1711.71
4509.58
3333.02
933227
35750.4
4378.83
24940.3
1.12433e+006
166962
2032.38
5380.39
28563
20283.3
100.922
865.873
1603.71
4619.97
4903.99
88829.2
328.832
1738.36
5156.6
3127.11
958704
2818.87
662315
2514.72
1.11192e+006
442.007
11479.1
721697
27509.2
57.7618
931829
1.03608e+006
3323.43
533076
15676.3
16035.2
1.12011e+006
5502.61
114674
1088.64
12321.9
700.161
24.5172
3568.26
12736.5
1105.67
1096.49
1.11994e+006
1.05555e+006
15950.7
10476.4
667401
3206.37
1.50011e+006
411.768
12013.1
3283.19
1359.3
1.13489e+006
1782.15
135012
3961.7
7937.52
11209.2
15126.3
853.066
1358.03
370.844
14952.5
295.233
43369.7
1.13236e+006
1.11291e+006
2410.33
1.14435e+006
3013.87
15259.4
4942.06
72.941
3223.31
17155.4
3966.02
2010.61
1857.04
2762.2
986367
1.10479e+006
7722.45
377.471
1.07041e+006
3971.84
16708.1
765.727
12349
3997.76
316.09
372.94
333.244
1.14199e+006
124234
14263
6168.35
1.18813e+006
1285.87
11847.9
3842.46
2367.94
18803.4
1.25298e+006
4593.89
82.5233
971709
17496
1.51381e+006
427.89
885771
862760
14508.8
5091.36
15511
975196
2851.46
51618.4
1.13002e+006
2621.62
1.14165e+006
1.11019e+006
3555.83
1.13073e+006
4047.91
1.03177e+006
6571.63
12629.7
3314.73
6065.91
12048.6
293326
867977
12117.7
1212.18
1.14493e+006
4704.54
1841.24
2166.87
2499.43
1.13803e+006
4182.51
562390
961767
6172.49
8108.4
4743.15
20623.8
53.1962
1.0849e+006
134747
3213.55
1.08094e+006
16811.6
20870.8
444428
4459.95
3458.7
11882.8
909072
1.06697e+006
6405.75
1.12649e+006
1235.76
10289.5
32287.3
783992
4973.38
6775.79
11372
20263.5
3282.54
36439.6
4881.82
960.474
4430.34
20481.7
1.07656e+006
919.622
1.12679e+006
4931.73
1127.95
4485.6
146.157
12697.1
2693.75
5838.22
143016
4204.94
4700.37
829592
1515.35
1309.4
791697
5848.82
9792.43
19817.6
13599.6
1.13493e+006
1.15378e+006
4325.03
563362
21599
9530.23
517.907
6663.75
16757.5
18109.2
17818
78686.6
1155
3006.29
276.377
212658
422.453
700022
4894.85
9126.67
795.726
972747
18326.5
4369.52
887.441
855.437
5125.27
13013.2
88.9676
866987
2603.88
14897.9
2496.69
451.867
478621
6282.19
1.12392e+006
896953
12703.3
368.943
1369.85
5738.7
331.046
9055.32
1.02585e+006
13008.1
6367.86
13702.9
1.08989e+006
500.861
176.837
1.14329e+006
8655.05
375.579
72492.3
4734.96
6297.89
312.572
13813.3
952243
20705.5
1.11211e+006
547.223
1.12791e+006
15727.3
20009.7
1.04747e+006
8235.66
1.13191e+006
12615.5
26169.7
1176.79
445.518
3326.59
1215.18
11402.3
211549
1.17218e+006
1.08718e+006
12684.6
271457
185.543
945272
2837.18
5222.49
11280.4
20805.9
11837.1
8560.28
1176.94
6063.92
3121.25
176.776
552.641
4715.31
3911.81
879.462
23574.2
44942.3
8180.69
9722.82
833450
4001.66
9599.12
4956.87
5844.72
1.04516e+006
130382
1417.18
363.675
19957
7189.48
4370.54
1.0703e+006
26872.3
8676.27
3329.06
7041.94
1.14924e+006
1.10975e+006
4175.85
6289.17
3524.05
4182.56
8240.31
562.437
622.582
1.13245e+006
577.201
14674.5
722965
12684.6
48650.4
1.09375e+006
8818.97
932649
17444
1590.74
669865
56061.1
9939.24
1.10409e+006
680.054
1.12673e+006
1.12692e+006
1.02741e+006
686.193
1.15856e+006
11272.7
14805
5773.67
4050.56
854.21
1.34171e+006
1.19436e+006
7391.75
1170.06
5167.24
10243.2
1.11915e+006
67794.8
19097.9
1.14537e+006
862876
366.996
13755.3
1.11365e+006
769099
5498.19
1.12589e+006
20095.3
4655.5
4175.73
1.06978e+006
10448.8
7085.76
1.14101e+006
3339.37
12320.5
1.11506e+006
152581
12964.8
1.13806e+006
393.317
1.06038e+006
431.244
17524.4
37724.9
12353.1
5733.85
3450.45
5077.62
5247.54
6276.24
3449.21
649038
8418.44
7317.38
900729
1290.31
13014.6
1934.35
13861.2
60804.3
4415.47
307.496
12166.2
17804.7
1479.72
13337.9
7367.06
16124.2
9940.17
165.826
921.663
502.129
1.14285e+006
21014.3
36822
7077.1
685502
369529
1.1548e+006
6243.52
11138.5
5984.44
10924
15251.8
24906.2
5654.89
3158.67
873140
479232
991.701
23974.8
3560.18
1.1136e+006
554494
385.747
5161.86
79728.9
12669.3
1.1531e+006
10387.9
4122.68
937.682
3560.57
1078.89
436999
3026.74
9952.53
815108
8519.18
25390.1
727062
25724.1
5619.34
12053.4
12625.2
986689
1.1747e+006
4989.3
832919
1.17861e+006
1.26697e+006
480362
974945
4045.28
564799
5868.43
18707
158.209
5326.95
18060.4
26159.1
4614.02
1382.71
320096
4302.4
5544.58
413.956
752600
307561
5128.59
1.12908e+006
1898.94
1.04977e+006
1.15932e+006
1.37314e+006
1105.17
16606.8
152486
4083.09
2742.4
8982.15
1.11756e+006
12596.5
1.08038e+006
960022
113.326
247.24
75.4928
107.449
248.214
67.6
102.956
56.2021
178.712
6060
325.435
517577
4678.51
661.29
468629
11582.3
13300.9
6452.07
16698.1
49473.7
731291
12544.8
14760
491.536
34501.9
715.256
26529.9
12425.7
18735
14769.3
4540.19
11204
933636
14264.9
16533.1
24974.5
56390.9
3039.03
17958.6
7220.55
168.479
3517.41
538921
1.14255e+006
743.583
5815.13
555.358
3396.26
1795.53
904.114
511.347
773703
928596
613108
902473
24485.8
684627
4731.5
282.127
10295.3
7948.6
6739.66
137.899
419.529
18503.3
667750
387.729
9405.87
244720
2056.61
41112
2819.78
8791.85
295.262
23901.6
6258.94
3466.65
1.05569e+006
4565.75
19466.8
12042.8
343.209
992.689
4901.53
766063
1.13997e+006
1.08217e+006
2224.88
13220.8
6668.57
3649.86
4962.95
1899.13
13337
1.14725e+006
1.11349e+006
6950.84
4461.26
926893
777028
309.539
1.14317e+006
882107
1480.21
10255.2
1.12496e+006
927652
10875.3
4348.6
32313.1
855215
51989
12529.6
28678
15795.2
16960.9
1.08192e+006
89060.4
530.321
1.0721e+006
4703.96
27139.2
3648.61
103063
1821.05
109.632
9560.37
13499.1
19817.7
5040.08
1.1193e+006
377.932
980844
984244
361.89
60464.4
935950
823807
1.05259e+006
43296.6
1621.86
8465.2
10574.4
354.712
1571.04
11986.7
77546.5
13039.3
1.09783e+006
553576
3835.83
3162.85
5867.59
895819
15568.3
430.112
880.55
5825.82
16387.2
855703
10658.6
10483.6
4491.32
9635.67
447672
4079.61
85.6095
1042.36
467.641
1.10826e+006
985106
4549.68
64540.6
1.0084e+006
35953.2
1.02226e+006
6195.89
652372
4555.63
1.0695e+006
27889.4
20124.2