/*--------------------------------*- C++ -*----------------------------------*\
| =========                 |                                                 |
| \\      /  F ield         | OpenFOAM: The Open Source CFD Toolbox           |
|  \\    /   O peration     | Version:  dev                                   |
|   \\  /    A nd           | Web:      www.OpenFOAM.org                      |
|    \\/     M anipulation  |                                                 |
|*---------------------------------------------------------------------------*|
|* OpenFOAM for Windows 18.02 (v1)                                           *|
|* Built by CFD Support, www.cfdsupport.com (based on Symscape).             *|
\*---------------------------------------------------------------------------*/
FoamFile
{
    version     2.0;
    format      ascii;
    class       volScalarField;
    location    "1e-005";
    object      rho;
}
// * * * * * * * * * * * * * * * * * * * * * * * * * * * * * * * * * * * * * //

dimensions      [1 -3 0 0 0 0 0];

internalField   nonuniform List<scalar> 
23640
(
0.00288252
0.00354545
4.49127e-005
0.784168
0.00518771
0.017714
0.0036549
0.00777734
0.010604
0.0187146
0.61364
0.00682762
0.00462391
0.00440523
0.0256115
0.0157607
0.00128877
0.445564
0.548287
0.014817
0.590924
3.33591e-005
0.588335
0.598856
0.00611958
0.00513077
0.0842185
0.0197537
0.000699626
0.00443872
0.00390537
1.14054
0.591203
0.00876624
0.014788
0.0241032
0.00132077
0.00077612
0.00019321
0.642906
0.0069779
0.0116449
0.00470967
0.00016441
0.86639
0.104938
0.00271244
0.00383895
0.0181821
0.00778928
1.03232
0.459635
0.021447
0.00141855
0.787887
0.0118471
0.0219539
0.0053158
0.00204966
0.907784
0.00389725
0.111877
0.676773
0.475249
0.00227899
0.472828
0.0130317
0.00578947
0.432485
0.00492442
0.663062
0.00868104
0.541522
0.00120289
0.0153501
1.134
0.0101247
0.00464434
0.551772
0.649224
0.124445
0.0328643
0.00247608
0.00245515
0.00221514
0.014037
0.457417
0.630225
0.547729
0.0265652
0.00243762
0.00586462
0.0173659
0.544084
0.457301
0.00729221
0.483401
0.0158908
0.0114744
0.0171933
0.0211086
0.00138122
0.598641
0.000944751
0.0110576
0.000713679
0.752471
0.000982294
0.00706583
0.0108006
0.0032357
0.542828
0.00985833
0.00673408
0.0627093
0.000462777
0.0255932
0.00255196
0.00239656
0.00534668
0.606082
0.920171
0.0169124
0.947705
0.037518
0.626642
1.05737
0.036587
0.01746
0.00607419
0.0287805
0.0216007
0.00476369
0.054636
0.00095223
0.630225
0.605103
0.00595833
0.618409
0.498808
0.0114687
0.0221961
0.535828
0.614422
0.547953
0.00827595
0.620362
0.644341
0.00248978
0.463356
0.00784066
0.0171001
0.00259682
0.699664
0.0225626
0.00048342
0.00368223
0.00918326
0.0119786
0.0829723
0.0263842
0.0165383
0.0239395
0.01108
0.000480252
0.000363177
0.691744
0.0744575
0.757936
0.0210299
0.00387212
0.0546696
0.0150376
0.00677912
0.700055
0.668899
0.00610324
0.0570373
0.650896
0.00502667
0.864517
0.0104511
0.00597962
0.0161885
0.000834998
0.266873
0.0369695
0.0134897
0.906458
0.0173899
0.0151783
0.626592
0.920531
0.0025914
0.00103243
0.638912
0.0111323
0.0228171
0.0125091
0.0584715
0.582176
0.00014705
0.000971385
0.011667
0.559731
0.00220405
0.0123237
0.588917
0.0408934
0.694581
0.00474825
0.00560935
0.00579984
0.00222464
0.0175079
0.00908455
0.00416052
0.0142809
0.0120528
0.00013532
0.00593545
0.621859
0.582728
0.00691952
0.57773
0.00966509
0.00541275
0.930182
0.000124365
0.00244342
0.00319052
0.000907539
0.0119585
0.00543744
0.00894501
0.0318082
0.661717
0.00911277
0.00247975
0.115767
0.023153
0.0570481
0.00715367
0.0122454
0.766604
0.00125608
0.00592606
0.0134928
0.663519
0.6177
0.911
0.00502312
0.0027374
0.70241
0.00211399
0.643775
3.30419e-005
0.000943735
0.756137
0.746123
0.840739
0.0020785
0.0201878
0.0071216
0.000636318
0.00468827
0.0605715
0.0119022
0.00212239
0.446147
0.0134025
0.00037042
0.604761
0.903857
0.0371163
0.0092835
0.000846164
0.923869
0.480236
0.00658834
0.628342
0.000312241
0.255969
0.619823
0.0160488
0.111302
0.0109101
0.0246602
0.00303086
0.6186
0.00951492
0.0010828
0.0087296
0.0119502
0.616988
0.00782812
0.00605881
0.00133725
0.00572678
0.00180482
0.0784211
0.481078
0.929184
0.00684551
0.600338
0.000512458
0.0241794
0.0781311
0.819304
0.537319
0.000895248
0.0329302
0.671144
0.55203
0.578057
0.0570344
0.0128513
4.18575e-005
0.463946
0.0170192
0.00272898
0.00909346
0.0150685
0.0194431
0.000925273
0.0294593
0.949517
0.00830813
0.00369213
1.09047
0.261775
0.00766072
0.0163712
0.0246987
0.00879942
0.00700629
0.0112881
0.0129348
0.00791289
0.00574115
0.0118225
0.507253
0.0217924
0.933637
0.630233
0.430435
0.0908976
0.00673382
0.00919859
0.0121485
0.741029
0.0263893
0.000906421
0.00270264
0.0147122
0.000466997
0.0067721
0.0012255
0.676949
0.62318
0.0358422
0.599034
0.496547
0.00162964
0.0086254
0.000225698
0.000300393
0.0144643
0.550785
0.00497269
0.046878
0.523385
0.000892085
0.58008
0.0372888
0.00091252
0.949569
6.43063e-005
0.00842592
0.061662
0.550956
0.519451
0.00913505
0.505468
0.0103135
0.000711372
0.0186963
0.000314196
0.639846
0.000354346
0.425493
0.019986
0.00984263
0.0216023
0.0149218
0.617173
0.922828
0.000968883
0.0026877
0.0797788
0.00136785
0.689223
0.0224598
0.000410696
0.00474589
0.00530201
0.832856
0.000762757
0.0236044
0.0122189
0.0221135
0.661678
0.694862
0.0124184
0.621406
0.00660668
0.104363
0.00550815
0.0175952
0.011266
0.751468
0.430013
0.00566361
0.0219337
0.0208336
0.0004417
0.938923
0.018433
0.599799
0.00806719
0.000913719
0.890363
0.652842
0.585497
0.0377297
0.631184
0.0501349
0.0256318
0.0919959
0.949
0.0261129
0.678444
0.0230579
0.0178661
0.204732
0.0126453
0.0873552
0.0138173
0.594298
0.0145392
1.20615
0.0132119
0.706225
0.0201766
0.392216
0.000797924
0.00295356
0.0243626
0.76192
0.0165746
0.0176523
0.0159501
0.00979634
1.22185
0.0241856
0.00519
0.0237106
0.0122519
0.0170846
0.0157635
0.0271849
0.00786391
0.844938
0.000106094
0.00182861
0.116802
0.00443211
1.17854
0.0321622
1.02638
0.0120811
0.000658877
0.0155767
0.0180857
0.026131
0.0377228
0.585794
0.000211895
0.00393855
0.00221302
0.0582425
1.03594
0.00405821
0.614057
0.00800532
0.00507702
0.0161893
0.241472
0.0464896
0.0011533
0.00704416
0.640867
0.000440916
0.00770332
0.00842032
0.00208204
0.0137318
0.000764805
0.00100558
0.00435554
0.112664
0.00272093
0.0164231
0.015634
0.580643
0.00768041
0.00956601
0.000969465
0.0126606
0.624922
0.0225601
0.390814
1.16724
0.025471
0.00301463
0.0102366
0.586097
0.0160727
0.553249
0.00204763
0.00564857
0.579396
0.0384483
0.0210195
0.0128674
0.00566102
0.0211484
0.0192738
0.000971002
0.0080134
0.0099797
0.00802938
0.00830839
0.00568345
0.00188751
0.00442032
0.025202
0.555874
0.00654336
0.00638607
0.107258
0.0054446
0.0113205
0.00012961
0.0873449
0.00529579
0.00649602
0.052541
0.604811
0.700003
0.00696161
0.614448
0.00758576
0.059772
0.512426
0.585698
0.0149106
0.576439
0.0794446
0.0184149
1.23517
0.00480807
0.00786203
0.000560032
0.00180911
0.550131
0.0194667
0.0145024
0.0133766
0.00226783
0.890536
0.0119778
0.00118064
0.0159212
0.554968
0.570536
0.00813992
0.0130894
0.00494882
0.57748
0.661143
0.00653046
0.00657725
0.0126398
0.00208329
0.470048
0.0138954
0.0538395
0.00779191
0.0166489
0.620913
0.59664
0.76463
0.0352832
0.00457789
0.0121768
0.0213975
0.00220693
0.0081675
0.584651
0.00577227
0.00779639
0.00694147
0.00665972
0.018825
0.0187467
0.0152307
0.00921599
0.00175727
0.954266
0.558301
0.00612881
0.00501306
0.663647
0.0048763
0.455392
0.00464141
0.582752
0.00723087
0.023259
0.000272653
0.0118001
0.000600685
0.0049091
0.000158945
0.82015
0.00728228
0.00462292
0.000975114
0.0255562
0.0123984
0.0158542
0.614833
0.00483001
0.0107888
0.0118393
0.58074
0.0509912
0.000659199
0.00671748
0.0207229
0.929609
0.548033
0.00235512
0.0141762
0.938395
0.0462947
0.587224
0.00455392
0.00698527
0.0153265
0.0887888
0.000433782
0.0311469
2.85675e-005
1.86505e-005
0.00363552
0.933123
0.558772
0.0162329
0.928071
0.010053
0.00543616
0.0258778
0.487067
0.0016615
0.00582251
0.00550901
0.00228374
0.642368
0.922631
0.0137871
0.00656426
0.000183423
0.00890601
0.00074083
0.806421
0.00825098
0.117067
0.929877
0.000682906
0.0107955
0.38935
0.00370905
0.380719
0.00101236
0.0237727
0.00661182
0.624081
0.00966814
1.18399
0.481461
0.00987085
0.605598
0.00100832
0.00633185
0.641165
0.0129776
0.623814
0.0113969
0.547521
0.630691
0.0374304
0.000251614
2.25566e-005
0.0238698
0.0204677
0.00351206
0.582491
0.0229151
0.0160945
0.112497
0.0131328
0.000233329
0.0217086
4.58747e-005
0.000562673
0.00122891
0.010279
0.749917
0.00862373
0.0010173
0.655658
0.610188
0.000419775
0.00920105
0.017456
0.00667317
0.657695
0.0105297
0.00912868
0.00839765
0.659137
0.0340621
0.000902836
0.292992
0.00122516
0.490697
0.000749405
0.00559711
0.299498
0.000295321
0.00745006
0.00507496
0.00586129
1.17468
0.0584054
0.00102075
0.448839
0.653755
0.00165687
0.00205923
0.373707
0.0125961
0.785555
0.0154815
0.624996
0.0110937
0.525965
0.0211897
0.0253701
0.0131331
0.0972166
0.0100129
0.572884
0.00454609
0.691051
0.0141474
0.409234
0.0130453
0.0124222
0.967118
3.4746e-005
0.0137698
0.0166276
1.04034
0.049973
0.000770024
0.0154217
0.0101469
0.000118007
0.0238558
0.538737
0.00755891
0.000346017
0.62107
0.00900513
0.643345
0.00179634
0.617138
0.0132979
0.0244089
0.0076244
0.0030735
0.0142194
0.933824
0.00347287
0.554671
0.627062
0.00526055
0.0164887
0.592182
0.00526544
0.837931
0.0137444
0.0169113
0.0032498
0.47847
0.0258585
0.00688439
0.014019
0.0124861
0.537926
0.0208657
0.0213032
0.645684
0.0305425
0.00145468
0.0129695
0.370458
0.00551449
0.0580804
0.00100449
0.487902
0.00993455
0.00908706
0.01619
0.2159
5.68602e-005
0.00469764
0.489633
0.017372
0.608547
0.00754905
0.000393183
0.0007079
0.703244
0.00559466
0.650943
0.00540975
0.00531579
0.00483213
0.0262166
0.00527583
0.534892
1.2304
0.0118591
0.0260124
0.0133617
0.0241902
0.0113898
0.0027944
0.00712237
0.747308
0.11493
0.00464836
0.606992
0.000844439
0.893961
0.0244088
0.0345923
0.624154
0.675042
0.604141
1.20982
0.000702658
0.935991
0.132461
0.000973614
0.000342015
0.0120559
0.00423613
0.487605
0.00409711
0.0350665
0.0191874
0.647722
0.029089
0.799406
0.00627546
4.29332e-005
0.0528686
0.00702311
0.0204733
0.618416
0.0207728
0.0109943
0.0098535
0.000109228
0.59248
0.577375
0.0160106
0.00442492
0.00407197
0.382824
3.98171e-005
0.0277842
0.00947794
0.0135389
0.000440696
0.0486621
0.000359613
0.0201712
0.0207388
0.952095
0.00697283
0.140642
0.70712
0.565619
0.646847
0.0201
0.509777
0.00447061
0.641521
0.000483529
0.0233835
0.000983566
0.0137068
0.0164117
1.16029
0.485745
0.543528
5.82872e-005
0.010255
0.85214
0.0356895
0.0247979
0.00630737
0.0104906
0.657031
0.0137819
0.000243012
0.0158033
0.0183269
0.647921
0.0223158
0.624729
0.388594
0.000925061
0.00184963
0.00589717
0.620857
0.000528576
0.0234589
0.00250068
0.00422472
0.729783
9.21368e-005
0.00385413
0.000798019
0.00969309
0.00234185
0.55994
0.00346244
0.00674976
0.0091637
0.00485573
0.935052
0.00212749
0.00478308
0.598554
0.00265455
0.625154
0.0108856
0.0186675
0.00434371
0.00834584
0.0240034
0.00637558
0.665225
0.014845
0.00276902
0.00714618
0.0049641
0.00511674
0.556241
0.000121717
0.00473686
0.607388
0.543945
0.00313437
0.783006
0.007531
0.00840695
0.653237
0.0126649
0.935858
0.00205995
0.0109285
0.0228813
0.0195692
0.00359403
0.412791
0.017872
0.0259313
0.10291
0.035727
0.000903903
0.010441
0.0170564
0.000518306
0.0085819
0.000911103
0.00349405
0.614804
0.0225835
0.00752556
0.00336391
0.0111029
0.0130983
0.557195
0.931118
0.000180087
0.625134
0.0219154
0.000671783
0.00286983
0.76234
0.481611
0.00514746
0.518167
0.0204065
0.00804433
0.0113779
0.00105188
0.00908486
0.0049805
0.0262555
0.0118748
0.00241594
0.00397446
0.624827
0.533997
0.00330251
0.00103885
0.0812694
0.0084322
0.116217
0.897868
0.0101031
0.00330254
0.0066768
0.886517
0.599087
0.558274
0.00708933
0.446435
0.00718784
0.0162442
0.0131015
0.0151258
0.572457
0.001533
0.666484
0.0052069
0.00325158
0.000117632
0.0656752
0.248977
0.0200773
0.650703
0.000315415
0.0173612
0.148274
0.115753
0.00790062
0.0502985
0.00377103
0.00252266
0.622803
0.00392435
0.0221466
0.0126325
0.19085
0.012053
0.0257676
0.0166552
0.558082
0.687519
0.00700273
0.0183041
0.00671685
0.00383428
0.020647
0.063745
0.00494494
0.00466586
0.00180661
0.0241018
0.0043915
0.0109477
7.13489e-005
6.30191e-005
0.737789
0.000980432
0.0080675
0.595359
0.00129566
0.0133428
0.130998
0.541017
0.0117601
0.00386214
0.00395294
0.00728168
0.00799949
0.068058
0.288403
0.00940293
0.0280759
0.696394
0.00439072
0.00259441
0.000711216
0.00168302
0.932526
0.00861966
0.0110886
0.00858915
0.872495
0.549434
0.0161639
0.016152
0.708713
1.20263
0.00089708
0.000248658
0.00891826
0.0107825
0.000668132
0.482482
0.0128403
0.000388266
0.627572
0.0109122
0.0396052
0.732988
0.8389
0.000855977
0.168367
0.0245015
0.000923203
0.00604311
0.00758122
0.00939219
0.00107668
0.228776
0.48674
0.0285708
0.600405
0.00835544
0.014991
0.484594
0.0010512
0.0230061
0.020368
0.528464
0.545485
0.0145181
0.142248
0.0159142
0.0152028
0.0205738
0.013065
0.0163552
0.014986
0.00822864
0.552089
0.0129861
0.00575647
0.0022146
0.549641
0.563382
0.000721349
0.00111187
0.572153
0.11675
0.000439035
0.588548
0.00330462
0.500023
0.00647602
0.0107891
0.00890014
0.00579287
0.00464957
0.00103918
1.23111
0.00806502
0.622316
0.0046892
0.0158124
0.62355
0.00824251
0.000879059
0.0281534
0.0169179
0.599688
0.0129324
0.628141
0.000387094
0.00799781
0.00811742
0.00408382
0.00305758
0.00499138
0.00384469
0.304729
0.00466925
6.95335e-005
0.00397352
0.0175635
0.00745298
0.419821
0.619155
0.00604035
0.658658
0.286079
0.855832
0.0200834
0.0248103
0.00388298
0.522483
0.00639872
3.78906e-005
0.00439268
0.00507969
0.00159128
9.705e-005
0.00842434
0.00679268
0.0159479
0.0143159
0.761738
0.0201368
0.000231457
0.00817612
0.468679
0.0115849
0.00999965
1.17421
0.0215621
0.0149949
0.000970616
0.0141901
0.0355205
0.00290738
0.00309342
0.00180121
0.0169017
0.626712
0.0162794
0.515351
0.14447
0.0267104
0.00808941
0.00593991
3.65023e-005
0.000601508
0.00936878
0.664314
0.00015019
0.0163785
5.29853e-005
0.00827453
0.628704
0.203199
0.634553
0.0103929
0.00736663
0.0206542
0.441895
0.00697131
0.604434
0.0246276
0.00539679
0.00203815
0.00425489
0.0205227
0.0133236
0.00647982
0.0255457
0.0170588
0.00731965
0.0130113
0.0512058
0.546301
0.0025519
0.000632579
0.00894969
0.0045447
0.00198284
0.0215633
0.00375674
0.00193309
0.00695486
1.20668
0.0164286
0.0151745
0.0140714
0.546647
0.618987
0.626149
0.00898222
0.0162012
0.0272127
0.58044
0.00353855
0.00332203
0.00179582
0.0128088
0.000531855
0.000818111
0.0180181
0.000387555
0.0241219
0.000664263
0.643684
0.08508
0.020121
0.00578528
0.00523796
0.0127861
0.00636833
0.705557
0.00887692
0.0765599
0.00510047
0.648341
0.679873
0.000712803
0.000296471
0.0064822
9.79067e-005
0.000991793
0.0123376
0.0224764
0.605907
0.020117
0.672331
0.0115666
0.00928386
0.00234087
0.0164539
0.0109389
1.11675
0.630435
0.0209265
0.0513354
0.0245005
0.0165973
0.553418
0.00491175
0.00430631
0.00870722
0.000247022
1.18009
0.00684976
0.754025
0.00151731
0.000836501
0.000737346
0.0137421
0.00658984
0.0144531
0.0137748
0.547719
0.634016
4.30369e-005
0.000595013
0.0127833
0.0114016
0.00366294
0.103137
0.0146045
0.0667681
0.0129221
0.0632289
0.632922
0.0841816
0.00613772
0.000503017
0.0168631
0.0204764
0.0485298
0.0050404
0.0214139
0.0902293
0.0124207
0.120366
0.0113033
0.000695575
0.00945448
0.559742
0.460527
0.570365
0.00039274
0.634338
0.45446
0.0251207
0.0131184
0.000769208
0.0200682
0.000331163
0.616663
0.00685055
0.000648626
0.00450886
0.0171552
0.00540487
0.627124
0.012129
0.0534792
0.671717
0.0129043
0.00953963
0.0224861
0.0139904
0.0129714
0.0215447
0.00405906
0.00590031
0.00172412
0.0147476
0.00160814
5.7709e-005
0.0192442
0.00149356
0.566748
0.000397974
0.0106538
0.00564489
0.0206342
0.0104976
0.00292115
0.000154644
0.000115706
0.0070613
0.58341
0.0168951
0.00402517
0.9245
0.00482177
0.011258
0.00537279
0.0126813
0.415237
0.0105749
0.862557
0.928758
0.00515011
4.27781e-005
1.2201
0.0041154
0.00811579
0.0304679
0.665404
0.00527435
0.0158022
0.0194548
0.0130797
0.00594892
0.0193444
0.0225404
0.875324
0.544438
0.00536011
0.442204
0.494132
0.000140184
0.0144083
0.496662
0.639993
0.652964
0.025516
0.00446378
0.937273
0.0160716
0.0166753
0.00537565
0.490543
0.601961
0.00148818
0.00176499
0.00420201
0.00509277
0.474119
0.00467316
0.0040316
0.01386
0.644434
0.0443493
0.00668248
0.691815
0.874421
0.669847
0.918994
0.000643816
0.0210868
0.558284
0.587793
0.00982591
0.0229094
0.00356618
0.00613431
0.488773
0.0103296
0.0474169
0.555593
0.00353799
0.766748
0.847011
0.669655
1.21588
0.00102532
0.00258541
0.00632662
0.0101084
0.221333
0.169533
0.000829915
0.000184163
0.0243029
0.013072
0.00575814
0.0381078
0.00678949
0.659247
0.00902536
0.00594075
0.00640667
0.000302866
0.0203657
0.62726
0.00315878
0.00312346
0.946928
0.691058
0.0209368
0.00497474
0.00582019
0.021636
0.00312897
0.0028433
0.0185409
0.0184716
0.615147
1.03179
0.755883
0.011796
0.0246399
0.0207824
0.96212
0.0102584
0.0146649
0.0121531
0.538476
0.00452066
0.62435
0.524154
0.0242275
0.022016
0.00151093
2.75222e-005
0.589777
0.00943235
0.00665456
1.23873
0.00500438
0.0126731
0.0173566
0.793369
0.00843081
0.00448363
0.52774
0.0080743
0.0987949
0.00212732
0.548955
0.0233269
0.75419
0.00646508
0.0145234
0.0257531
0.0081077
0.464408
0.0250003
0.00638478
0.0149329
0.0405507
0.00816936
0.642702
0.0414033
0.476637
0.0130147
0.016517
0.00319754
0.0127274
0.0752228
0.000356339
0.016601
0.928441
0.458733
0.0244787
0.632134
0.00118707
0.0477555
0.00411059
0.252882
0.00212973
0.0112245
0.668002
0.659827
0.0038638
0.0101309
0.664335
0.000385354
0.0169105
0.00985226
0.00438338
0.0117756
0.000669485
0.00345938
0.0100634
0.589763
0.0128976
0.0414974
0.649258
0.0378288
0.000161475
0.0102521
0.00593391
0.00917244
1.04883
0.0285996
0.734007
0.934342
0.0141976
0.0060096
0.00789303
0.71319
0.00221337
0.00635713
0.0165208
0.00722628
0.669041
0.000729978
0.0162732
0.024489
0.743575
0.635867
0.0242828
0.618816
0.000879357
0.00494191
0.644271
0.512146
0.0158207
0.931595
0.000718091
0.000135147
0.00271675
0.0856041
0.0164916
0.0025619
0.503341
0.00346906
0.937503
0.000843609
0.00155943
0.00405707
0.000845497
1.2136
1.18903
0.00516767
0.537938
0.00557646
0.0046189
0.639051
0.00359053
0.0538861
0.0105992
0.00742148
0.00319841
0.0142694
0.000282805
0.561269
0.00691774
0.000654656
0.0353137
0.0096501
0.00398067
0.0252674
0.000498868
0.642566
0.00451659
0.955766
0.0207985
0.00768744
0.617462
0.633941
0.573334
0.0139052
0.594461
0.562625
0.0135751
0.0146696
1.22061
0.61975
8.04341e-005
0.00615819
0.592031
0.606988
0.00684585
0.671041
0.595652
0.766714
0.660903
0.00136537
0.000196265
0.0111976
0.00824794
0.0148985
0.0624606
0.579319
0.0165014
0.599807
0.000333872
0.000901075
0.00849386
0.510207
0.632772
0.0162092
0.00562492
0.605493
0.00400369
0.0158143
0.0189734
0.00163395
0.939027
0.00807111
0.655193
0.0771128
0.0100852
0.393994
0.0132916
0.0157357
0.00572517
1.227
0.00909679
0.291791
0.00740915
0.00273042
0.025752
0.80927
0.75042
0.000370423
0.00710991
0.470644
0.0100971
0.030354
0.65158
0.393103
0.440954
0.014935
0.000310762
0.558871
0.179731
0.655237
0.00602513
0.80802
0.465928
0.004045
3.59484e-005
0.00320046
0.0515901
0.649664
0.0203977
0.432336
0.0209999
0.00399027
0.0150371
0.0855019
0.00369044
0.0163524
0.00615068
0.016984
0.0208705
0.590656
0.0168727
0.0181864
0.621186
0.00543519
0.014064
0.530206
0.0346521
0.0166788
0.00439722
0.00555853
0.011095
0.00113372
0.000854285
0.0120151
0.914548
0.0138323
0.000703639
0.015326
0.00480422
0.0173056
0.010694
0.398359
0.108399
0.00872698
0.00074322
0.00030331
0.904431
0.0232351
0.00626917
0.0059165
0.533736
0.003197
0.650222
0.643682
0.000274722
0.636625
0.741303
0.000720618
0.00451924
0.611147
0.0160048
0.0059304
0.00023822
0.000307712
7.69013e-005
0.000170093
9.94718e-005
7.59976e-005
0.000314902
0.000206585
0.000264706
0.0121698
0.0575572
0.00389708
0.000696016
0.486124
0.000789315
1.20979
0.0047348
0.000674284
0.00876884
0.000224151
0.575826
0.000996094
0.0165135
0.00119468
0.0145888
0.0214887
0.000345079
0.643091
0.0066734
0.0105661
0.0155467
0.0175366
0.116509
0.0104896
0.0122116
8.95181e-005
0.0146192
0.00575517
0.559063
0.0200777
0.0428773
0.671307
0.00593917
0.0073698
0.00497843
0.00023168
0.000792694
0.0049938
0.00624171
0.00235927
0.000662215
0.627575
0.0156588
1.02395
0.00852834
0.437349
0.703694
0.00437866
0.980038
0.0384191
0.00731809
8.37638e-005
0.0677179
0.000792918
0.568874
0.67001
0.00417255
0.00307824
0.00451173
0.00385032
0.825894
0.499186
0.0212184
0.0074125
0.531774
0.011703
0.000707172
0.574226
0.00419377
0.0211664
0.0139955
0.0135437
0.0346812
0.586852
0.00691362
0.0283263
0.00744251
0.00530007
0.396849
0.00998705
0.635062
0.897049
0.588988
0.617899
0.00595579
0.000466369
0.0104525
0.644873
0.0247915
0.0226409
0.00735276
0.003909
0.121389
0.000122576
0.00110758
0.00994976
0.480777
0.0903955
0.0110738
0.532814
1.22056
0.00745297
0.0618014
0.614758
0.698873
0.537722
0.00095654
0.832176
0.0252558
0.0169196
0.486538
0.708993
0.00320159
0.00254784
0.00273468
2.99742e-005
0.0101305
0.0160559
0.00203087
0.00221083
0.00963317
0.60913
0.0135683
0.0275817
0.0772375
0.00351314
0.023558
0.00373741
0.01557
0.648067
0.021263
0.0135541
0.00805567
0.025641
0.00830652
0.0243368
0.0255926
0.576573
0.0030739
0.00872815
0.00343735
0.000661476
0.0249618
0.0586148
0.585982
0.509812
1.19261
0.00519116
0.65427
0.00490037
0.0196849
0.00242358
0.00106936
0.00695205
0.00219055
0.397971
0.0159936
0.445935
0.00784505
0.0121565
0.009837
0.0117778
0.662105
0.0203968
0.0158518
0.00209672
0.0141659
0.152555
0.0114647
0.00254126
0.0148805
0.0156336
0.0128386
0.0258941
0.681112
0.00630401
0.00745528
0.664911
0.710479
0.00576234
0.0118521
0.562883
0.0620966
0.0704373
0.656233
0.546555
0.331965
0.000221298
0.0168991
4.59828e-005
0.60833
0.000664892
0.0195629
0.0217057
0.0329373
0.0201614
0.240139
0.0076543
0.0248931
0.638019
0.0206164
0.539011
0.0159925
0.550982
0.529467
0.0129634
0.00574442
0.00357493
0.040062
0.000387085
0.00251028
0.00320757
0.0024386
0.0219674
0.0632274
0.00103243
0.00317417
0.0253519
0.0107057
0.000509806
0.0247858
0.0117027
0.00577656
0.461302
0.611625
0.0161239
0.0189226
0.365481
0.669407
0.0222214
0.453455
0.0123794
0.0106841
0.540841
0.696641
1.05576
0.00296965
0.0705786
0.608172
0.0200624
0.513029
0.446117
0.0136831
0.000823259
0.00142854
0.00617455
0.0107592
0.0125095
0.000683839
0.000754847
0.815585
0.750846
0.00791397
0.641279
0.0171557
0.00553796
0.101692
0.0253488
0.0192989
0.694662
0.0112138
0.0175693
0.00410967
0.00291121
0.936646
0.00698543
0.60623
0.662847
0.00511844
0.000876037
0.00157757
0.0127783
0.560325
0.00389722
0.0127538
1.1798
5.9148e-005
0.606739
0.00572185
0.588092
0.015823
0.150488
0.0601642
0.00785051
0.00397172
0.0095013
0.0251739
0.674996
0.0156533
0.00386466
0.0356119
0.00705432
0.134048
0.00765918
0.011041
0.00217718
0.00116419
0.670258
0.572311
0.0138953
0.0129315
0.009957
0.00907705
0.00913328
0.0173214
0.516612
0.000914164
0.0118649
0.473151
0.00644869
0.937423
0.0121885
0.00869418
0.0162339
0.731237
0.01013
0.00315623
0.00371799
0.000453229
0.0140862
0.00747511
0.00999003
0.0147969
0.00170262
0.011758
0.000609814
0.00372795
0.0124025
0.0222325
0.00400835
0.0068267
0.0151047
0.000936553
0.000964939
0.0122832
0.0029933
0.00111367
0.634903
0.0030036
0.00484776
0.752815
0.025501
0.0167919
0.635522
0.769206
0.0139666
0.0246158
0.316437
0.727108
0.0255026
0.663919
0.98603
0.0121536
0.87949
0.000115278
0.00613324
0.000221405
0.00143635
0.0130766
0.125033
0.0152894
0.00880807
0.0155188
0.751517
0.00990917
0.000393843
0.00837964
0.00413699
0.00466882
8.88312e-005
0.00710804
0.00525578
0.000955357
0.0303595
0.00046732
0.633542
0.637747
0.0358526
0.000702508
0.593738
0.588587
0.444438
0.627913
0.00882262
0.00976499
0.0183101
0.0985106
0.000861162
0.0378291
0.0249297
8.81877e-005
0.00386409
0.00710397
0.000474721
0.00675652
0.000810868
0.0100865
0.660988
0.00569016
0.00380316
0.00324883
0.489466
0.0222547
0.00942957
0.914444
0.00704974
0.00549656
0.00092834
0.00411745
0.00824379
0.107965
0.00669464
0.693666
0.939344
0.663038
0.000699323
0.216291
0.000574377
0.00040123
0.00748741
0.0138307
0.00683257
0.00791338
0.0194878
0.00381105
0.618596
0.00171225
0.0156825
0.00075412
0.946202
0.00320234
0.0216919
0.000652226
0.133832
0.00839902
0.00440062
0.696745
0.927294
8.36125e-005
0.686499
0.000839958
0.004151
0.00379809
0.00837614
0.0158403
0.00477343
0.0047933
0.64481
0.00336723
0.0245118
0.0984685
0.0160479
0.000959809
0.00597964
0.0789751
0.00851192
0.635299
0.0133239
0.0260408
0.605212
0.00399439
0.00627159
0.00593845
0.020779
0.604445
0.616617
0.000643508
0.483287
0.000744837
0.00258074
0.665849
0.0204944
0.021878
0.0132051
0.0166954
0.00406223
0.0129213
0.566722
0.180198
0.00107965
0.0122716
0.00611278
0.00897439
0.195921
0.00572788
1.05571
0.036353
0.0132295
0.0063115
0.00172499
9.13911e-005
0.00419221
0.000319204
0.017973
0.545841
0.00276949
0.0152564
0.901432
0.000853452
0.549154
0.7745
0.602692
0.00629818
0.00463121
0.0073796
0.0165819
0.50485
0.0122058
0.00116109
0.00802054
0.0116601
0.339126
0.0112454
0.0138508
0.00567506
0.698912
0.562426
0.0212644
0.00906847
0.00797297
0.00223043
5.67061e-005
0.142195
0.000843966
4.32073e-005
0.00311796
0.00799923
0.00674718
0.0206818
0.130974
0.0166894
0.008968
0.00923355
0.0111508
0.00103917
0.00677966
0.066334
0.0221614
0.00458532
0.000856327
0.0976345
0.0153447
0.000769118
0.0184047
0.95804
0.555926
0.00863745
0.489788
0.646604
0.0110257
0.000313516
0.552289
0.0127156
0.000924285
0.000605151
0.000521987
0.604875
0.532026
0.566053
0.00784879
0.00407661
0.00116969
0.00642494
0.00858227
0.000913729
0.0463235
0.0435905
0.407124
0.621055
0.0140336
0.00158443
5.57727e-005
0.56735
0.00682016
0.0139501
0.000728349
0.000492369
0.0133645
0.390081
0.441639
0.0123348
0.0135474
0.203724
0.0199492
0.00799578
0.655248
0.00067042
0.0128401
0.557813
0.771152
0.0158549
0.553476
0.0249974
0.537769
0.000455944
0.000755439
0.00174607
0.00549452
0.0034569
0.679181
0.00484521
6.56318e-005
0.00603971
0.0119435
0.00457522
0.000417446
0.015714
0.00986861
0.0142111
0.00417962
0.604843
0.0151402
0.00170778
0.00422316
0.017781
0.000377271
0.617115
0.000760226
0.0153128
6.45448e-005
0.00979596
0.146312
0.000226822
0.599785
0.573474
0.740696
0.00018328
0.0052435
0.00155199
0.014763
0.00582549
0.00478933
0.00948376
0.747595
0.000308722
0.0164269
0.0119311
0.0131481
0.00607687
0.0075977
0.534613
0.00555786
0.00148559
0.00075577
0.0139273
0.00239896
0.00795766
0.00169612
0.000707481
0.00632027
0.0102949
0.0257901
0.00452161
0.770209
0.0251166
0.00157976
0.00235862
0.0075654
0.524264
0.408907
0.64021
0.0211127
0.334004
0.00411908
0.0124103
0.508699
0.00723224
0.671948
0.0118072
0.00484545
0.00744542
0.00665425
0.612089
0.00301277
0.00796598
0.809257
0.69802
0.020494
0.649242
0.000730276
0.632512
0.0161005
0.00107318
0.0139849
0.0263122
0.0041213
0.31769
0.933494
0.00463215
0.0595674
0.00620663
0.758994
0.00558006
0.00380509
0.207086
0.162128
0.474277
0.00100456
0.791344
0.000735233
0.0136787
0.00454984
0.000254675
0.00212226
0.00210054
0.0418274
0.0101362
0.0109568
0.820275
0.0153426
0.611096
0.445782
0.398018
0.0370731
0.261123
0.0286559
0.0074389
0.000364013
0.00118365
0.00500378
0.564904
0.006848
7.24628e-005
0.304709
0.741869
0.0390232
0.00705607
0.0195488
0.00576414
0.00447504
0.0120485
0.000820819
0.0050416
0.00430784
0.742725
0.0143379
0.0151019
0.00463897
0.0001628
0.00599858
0.000601459
0.00832214
0.615998
0.000282597
0.00588093
0.0202147
0.566357
0.00315758
0.000210688
0.000705723
0.0255715
0.0337273
0.00607851
0.0153094
0.00539465
0.00565581
0.00073852
0.00497685
0.0416455
0.0259355
0.0142194
0.0228104
0.0109476
0.646297
0.0192466
0.00835357
0.0357872
0.195864
0.677841
0.0167234
0.00566086
0.0107788
0.00116381
0.00599312
1.20465
0.00316993
0.00897505
0.609662
0.00297809
0.00362978
0.0029386
0.389496
0.630715
0.842838
0.634021
1.00014
0.00205313
0.510537
0.0119879
0.00984018
0.0417745
0.000695214
0.0551803
0.148306
0.0443562
0.628156
0.0228344
0.00181762
0.0172945
0.00708434
0.0134935
0.0134271
0.665147
0.00807002
0.0105296
0.00158999
0.0188972
0.0210576
0.00458298
0.635145
0.0125766
0.483237
0.00687719
0.000401737
0.934009
0.000874579
0.609487
0.00322291
0.00441959
0.000936863
0.00336268
0.00710808
0.000431044
0.0158727
0.0018968
0.0173186
0.000933988
0.000832634
0.00594817
0.00500954
2.7109e-005
0.635954
0.00544702
0.00609742
0.606333
0.00061171
0.00378609
0.00625984
0.00570972
0.567371
0.0399361
0.00685188
0.0263134
0.652721
0.140683
0.00303583
0.00948545
0.0357388
0.0230042
0.00015261
0.00219502
0.00242873
0.00822936
0.00670574
0.0828313
0.000368817
0.00383656
0.00742044
0.00420715
0.575583
0.00510678
0.431453
0.00502809
0.663499
0.000741985
0.0157608
0.463626
0.0247004
0.000114468
0.564887
0.609762
0.0047787
0.361516
0.0199125
0.0196781
0.694902
0.0096553
0.105491
0.00174667
0.01537
0.00102212
1.7802e-005
0.00490527
0.0155169
0.00265431
0.00264746
0.688372
0.617573
0.0160482
0.0160015
0.42887
0.00623201
1.21236
0.00073389
0.0137501
0.00628598
0.00223785
0.753615
0.00265591
0.119382
0.0055902
0.0100737
0.0139856
0.0194626
0.00217028
0.00316223
0.000685736
0.0191755
0.000512288
0.047588
0.745093
0.676378
0.00330495
0.815162
0.00446407
0.0181146
0.00889314
5.30452e-005
0.00626731
0.0204044
0.00672239
0.00410107
0.00403096
0.00506128
0.595735
0.664688
0.0112872
0.000689658
0.627874
0.00751938
0.0218094
0.00121474
0.0182733
0.0067776
0.00041779
0.000693439
0.000610227
0.83175
0.112009
0.0206297
0.0084566
0.96422
0.0017965
0.0120456
0.00725882
0.00373843
0.0232007
1.01229
0.00685601
0.000160532
0.575582
0.020833
1.22345
0.000797606
0.53459
0.534822
0.0154435
0.00814326
0.0169476
0.589886
0.00390478
0.0565846
0.736432
0.0041854
0.798334
0.670706
0.00503975
0.668253
0.00569721
0.59765
0.00983606
0.0158651
0.00475168
0.00802374
0.0164277
0.221649
0.524315
0.0172376
0.00133458
0.827314
0.00728893
0.00276056
0.00462034
0.00401061
0.771028
0.0058202
0.37838
0.570002
0.0087871
0.0112176
0.00764642
0.024089
7.85863e-005
0.634084
0.123895
0.00481085
0.645402
0.0205225
0.0254319
0.316687
0.00617177
0.00586653
0.0114921