/*--------------------------------*- C++ -*----------------------------------*\
| =========                 |                                                 |
| \\      /  F ield         | OpenFOAM: The Open Source CFD Toolbox           |
|  \\    /   O peration     | Version:  dev                                   |
|   \\  /    A nd           | Web:      www.OpenFOAM.org                      |
|    \\/     M anipulation  |                                                 |
|*---------------------------------------------------------------------------*|
|* OpenFOAM for Windows 18.02 (v1)                                           *|
|* Built by CFD Support, www.cfdsupport.com (based on Symscape).             *|
\*---------------------------------------------------------------------------*/
FoamFile
{
    version     2.0;
    format      ascii;
    class       volScalarField;
    location    "1e-005";
    object      T;
}
// * * * * * * * * * * * * * * * * * * * * * * * * * * * * * * * * * * * * * //

dimensions      [0 0 0 1 0 0 0];

internalField   nonuniform List<scalar> 
23640
(
153.37
115.322
288.82
351.77
129.988
226.749
108.504
169.863
164.61
188.122
414.612
127.434
168.692
122.131
239.488
230.391
146.683
382.749
399.058
154.18
414.145
254.134
413.37
401.686
140.04
118.454
239.563
167.332
135.421
157.914
219.015
299.912
414.542
134.496
157.471
232.666
144.966
228.404
172.743
405.428
128.572
168.651
128.723
168.783
320.304
265.315
151.067
110.828
187.045
178.347
300.043
384.529
219.975
133.252
350.164
249.869
194.556
133.745
93.1976
307.347
222.585
258.471
398.737
387.505
96.9401
387.199
231.603
136.482
366.158
130.831
403.314
134.083
405.258
134.781
237.969
299.825
290.508
172.131
399.623
413.401
277.576
198.79
100.756
100.671
96.2603
210.924
384.046
404.918
409.414
242.04
97.8612
137.774
176.015
405.214
379.346
179.24
389.289
242.877
167.854
178.051
183.248
131.885
401.748
146.781
149.385
227.825
366.38
128.698
127.283
163.53
233.776
405.411
139.934
127.648
250.728
209.073
241.124
235.274
150.57
163.66
402.861
301.214
247.842
300.023
198.648
404.724
300.009
216.396
220.976
124.018
184.298
179.456
169.399
214.897
148.235
405.083
416.164
137.933
409.516
392.879
166.203
198.178
404.275
414.342
393.521
150.411
417.248
405.59
98.2741
375.53
185.448
259.601
102.567
389.368
174.876
225.489
108.745
135.697
229.088
237.362
258.29
200.533
231.958
215.7
200.609
217.003
393.671
241.128
363.925
177.977
110.86
242.387
231.964
125.817
389.257
408.46
124.394
246.89
412.949
157.38
321.123
227.716
138.394
156.788
142.716
330.851
194.231
159.455
308.419
159.703
174.125
408.096
301.877
102.131
136.608
405.329
149.418
228.622
202.628
228.186
407.569
154.941
211.829
169.046
406.289
96.0761
205.054
413.774
223.936
392.408
126.197
135.031
163.849
96.237
266.117
156.819
113.307
153.306
195.146
144.696
162.906
408.548
407.999
127.728
415.65
139.178
119.227
300.345
143.099
97.9481
154.24
131.992
148.264
133.422
135.193
197.543
403.52
157.562
98.2191
279.884
187.191
257.135
129.081
170.108
359.538
136.889
180.776
223.643
405.033
404.021
306.647
117.985
151.146
388.249
94.3377
405.413
250.137
130.931
365.979
370.803
329.389
224.476
178.709
127.72
145.489
129.091
221.286
171.183
94.5586
374.212
164.793
127.512
402.89
309.669
215.226
136.088
143.727
301.024
385.535
124.762
404.891
131.947
327.796
414.32
188.126
263.511
179.462
243.223
102.652
414.133
188.651
137.162
155.5
203.294
409.377
154.633
123.825
136.261
121.988
159.776
245.401
388.947
300.651
142.822
415.586
144.082
184.163
238.412
337.792
404.877
132.664
206.318
406.882
397.592
408.24
218.207
156.602
285.38
381.04
211.716
171.488
135.469
158.047
166.501
156.191
196.907
296.737
154.674
185.486
299.846
324.346
165.31
157.399
175.023
169.392
142.562
209.989
161.749
156.23
122.037
218.651
398.541
173.271
300.582
406.575
380.256
245.83
127.062
137.648
148.556
373.26
192.179
128.476
237.074
157.018
196.08
183.487
219.211
398.728
408.818
192.616
413.884
392.595
160.804
154.996
123.131
143.642
168.903
400.312
161.978
222.942
389.448
132.553
408.623
197.772
129.174
297.983
160.839
155.15
222.461
395.364
389.283
157.863
397.807
163.493
197.157
185.371
218.887
405.4
128.06
369.261
243.309
282.346
210.412
165.536
403.969
301.402
197.911
150.841
239.508
186.242
395.195
210.985
129.126
171.51
118.727
333.252
134.102
201.06
223.047
231.385
405.993
395.318
169.411
416.845
126.634
259.136
170.599
189.864
145.12
367.988
370.311
121.645
243.212
192.709
141.28
300.166
263.097
414.271
191.68
145.954
311.746
416.95
413.159
195.833
406.737
226.108
237.407
267.322
297.641
176.951
398.193
245.408
188.119
301.601
198.988
244.281
166.783
408.011
169.379
300
225.983
386.556
231.883
369.177
182.471
101.851
183.725
363.706
181.723
189.252
186.491
139.845
300
207.749
162.392
209.523
294.492
170.688
174.259
180.849
184.68
328.091
125.452
183.194
263.604
126.737
299.978
204.57
298.978
183.143
140.114
156.146
186.981
236.939
220.579
415.457
151.391
213.432
142.782
220.823
298.641
169.479
403.722
151.951
117.311
171.495
320.055
235.117
203.341
178.215
413.791
133.707
146.736
185.284
93.9146
161.535
133.11
136.699
166.495
267.795
171.984
192.924
205.376
412.568
129.903
139.095
136.968
170.875
415.61
237.828
366.595
300
258.659
103.034
141.087
401.775
183.552
395.83
92.9934
120.709
415.747
211.312
274.119
252.519
171.608
211.791
176.321
128.622
142.04
215.723
183.294
153.807
121.692
142.094
125.784
256.379
395.2
151.844
150.987
274.88
133.331
265.565
149.423
263.534
172.964
142.472
257.235
415.727
389.321
237.166
420.726
145.784
230.215
395.897
412.889
223.522
402.524
262.864
191.271
300
126.032
151.323
232.028
235.784
399.906
250.138
209.197
161.24
147.221
311.581
184.814
223.191
184.435
398.186
397.625
214.772
160.14
117.305
402.861
406.856
147.124
126.616
170.878
93.7943
382.063
151.271
213.52
184.725
170.924
416.338
408.288
362.151
209.632
157.668
193.684
185.804
175.516
132.062
401.418
170.925
185.23
128.335
165.859
222.835
180.226
247.269
158.021
141.432
299.876
405.842
124.076
124.507
405.957
128.385
377.75
115.466
409.438
179.644
244.712
125.885
189.927
185.019
157.409
127.815
337.65
179.409
115.181
194.052
237.518
170.688
261.074
420.995
181.819
217.621
184.699
409.073
212.396
199.948
127.066
185.86
300.303
393.608
96.9989
152.241
299.707
234.467
415.738
166.994
238.216
155.524
250.151
213.519
200.421
295.545
349.055
185.705
300.415
395.69
201.462
300.585
164.752
119.363
206.242
388.028
143.392
173.348
135.161
141.985
413.474
303.127
195.879
142.9
157.35
134.925
180.732
343.601
132.832
274.751
300.789
136.59
221.311
356.965
115.847
363.74
145.177
250.151
130.66
404.573
139.28
299.989
386.783
141.595
402.709
174.998
135.815
405.439
165.157
422.794
162.18
405.819
404.961
219.441
138.994
331.736
245.349
238.992
105.669
412.925
262.618
165.225
260.485
163.322
127.574
170.327
301.561
137.224
138.117
141.897
366.298
168.87
211.251
405.648
421.12
234.353
137.316
319.378
126.815
405.118
177.825
202.692
132.812
404.816
211.202
145.816
341.779
211.748
384.293
133.801
174.646
338.414
154.085
160.414
171.913
145.913
299.978
220.661
127.895
381.914
404.839
237.909
93.6677
353.771
198.096
351.99
264.375
415.198
144.203
390.807
168.872
236.98
150.864
254.664
140.553
398.019
166.58
397.938
199.993
366.483
189.894
154.056
299.816
225.774
188.484
247.368
298.695
210.498
161.975
156.051
141.106
122.225
220.216
392.004
180.843
147.475
404.435
242.526
417.052
154.573
423.099
171.708
203.566
150.427
236.242
168.117
299.924
105.437
398.536
419.42
171.473
195.515
400.95
131.418
331.618
197.924
187.103
105.073
398.833
242.775
126.038
197.933
304.04
394.37
169.581
301.971
405.465
186.606
210.402
162.035
363.238
173.142
218.969
184.558
386.071
140.111
172.433
226.942
306.639
187.31
169.631
385.916
180.787
411.331
146.674
236.394
192.344
387.905
173.908
405.13
132.248
157.501
176.225
214.508
182.445
399.508
300
190.766
181.94
171.57
182.677
162.916
158.862
181.388
369.254
259.28
174.979
411.061
213.585
310.361
243.953
205.753
423.015
399.482
414.882
299.996
134.342
299.024
281.104
156.666
126.608
151.982
151.259
385.189
210.884
213.789
196.436
414.345
185.173
346.421
184.676
217.633
212.997
126.426
255.265
424.327
171.274
243.282
211.097
166.111
400.986
407.792
202.428
126.212
213.188
357.251
246.882
189.688
229.803
173.212
228.161
221.984
128.062
190.507
171.971
296.673
177.826
275.008
389.323
407.64
407.432
262.7
399.406
155.339
405.389
150.601
222.769
137.355
197.067
192.213
299.698
385.315
405.098
326.256
141.846
325.55
202.523
245.691
160.223
167.59
405.925
214.746
137.503
199.244
237.208
407.45
195.727
421.979
369.315
132.944
217.118
123.017
408.584
225.595
260.533
98.9479
151.312
376.597
193.25
110.717
149.976
141.932
96.9882
406.801
172.357
125.283
217.751
116.835
300.936
94.8166
116.496
408.233
159.099
408.284
182.819
220.51
165.742
133.335
254.575
134.959
402.693
258.343
107.108
127.523
117.354
118.374
396.22
158.926
169.404
420.906
401.39
166.3
352.867
152.16
134.006
404.885
196.863
299.734
93.5349
165.201
237.154
199.736
172.15
367.553
160.472
261.78
253.662
202.63
128.457
226.013
327.848
141.872
186.055
214.354
107.299
403.762
212.975
203.295
105.853
142.639
310.589
399.06
300.507
122.562
404.6
172.312
147.733
101.454
363.246
397.858
118.772
397.511
170.965
176.177
145.741
180.557
187.115
167.18
241.286
195.977
144.577
167.811
421.584
394.374
105.529
169.589
250.606
146.166
267.55
309.103
144.479
115.242
127.023
313.006
420.377
396.679
181.51
381.394
155.326
330.307
150.625
207.127
414.747
162.314
404.239
118.651
191.096
143.181
229.873
319.723
262.026
417.853
128.459
186.717
289.595
282.496
156.565
210.524
223.639
99.3344
404.465
164.467
213.131
152.052
300.771
293.48
242.505
169.847
401.518
395.645
127.059
164.413
148.564
148.562
194.194
249.352
154.776
169.339
140.251
264.353
113.941
165.52
144.085
180.136
372.176
141.069
165.633
415.775
161.601
200.347
276.031
392.574
174.871
212.524
208.754
156.885
148.713
237.623
335.355
200.772
182.807
391.744
172.903
171.813
131.998
144.009
300.497
186.093
144.072
186.175
318.035
406.427
215.444
213.719
385.504
299.998
128.551
136.329
157.337
221.298
136.341
386.391
208.273
225.499
408.247
182.143
215.415
374.008
331.315
147.027
287.465
207.785
211.029
161.822
198.322
136.426
135.971
313.561
401.86
183.362
415.214
133.042
196.264
381.142
202.328
184.982
168.914
391.253
408.894
153.427
273.752
175.592
203.59
170.98
254.244
188.164
173.018
184.084
406.986
170.588
137.797
153.474
397.633
407.224
134.423
145.956
409.523
283.096
197.869
418.346
146.375
396.415
177.764
218.589
157.954
145.491
113.538
140.423
300
186.958
415.931
126.249
175.257
415.996
132.936
133.066
183.539
198.137
420.488
240.262
408.706
175.355
131.715
165.626
114.231
170.498
117.72
216.324
338.95
169.099
151.978
119.761
205.49
181.563
375.7
408.528
122.424
405.633
339.352
324.155
168.079
250.161
118.605
398.379
175.282
307.868
113.93
116.315
234.128
153.384
152.072
125.973
164.799
232.219
362.416
263.112
139.364
149.859
376.67
199.184
233.462
299.866
257.542
158.731
128.77
191.36
194.147
229.917
187.894
213.179
185.909
414.68
190.801
387.453
276.724
187.692
183.361
122.947
237.02
132.199
187.957
403.213
186.126
321.591
323.058
150.695
420.126
305.32
409.135
162.448
180.112
271.405
372.68
126.853
411.634
270.913
169.927
145.5
208.174
309.596
171.482
126.12
251.474
186.856
181.205
226.975
210.371
397.5
102.516
236.567
155.73
113.172
227.447
201.813
219.987
209.362
164.212
300
170.977
200.707
155.495
397.34
408.791
419.87
188.331
192.254
181.849
408.053
107.866
108.644
140.593
152.718
136.492
169.864
166.509
220.263
202.146
133.635
405.579
271.552
168.841
142.161
117.125
188.829
125.593
390.37
187.866
246.912
116.356
414.778
397.628
136.522
126.94
176.587
126.041
189.573
151.351
173.996
411.576
190.371
405.276
203.889
136.066
229.641
165.37
144.22
299.919
424.472
269.463
222.799
180.334
253.605
394.907
178.988
113.26
137.572
180.929
299.952
158.771
365.746
213.152
174.023
138.775
197.288
126.045
179.391
197.735
397.956
423.077
287.005
138.923
198.135
189.109
236.434
255.246
170.453
241.066
153.027
227.344
414.393
242.472
123.859
233.24
234.223
193.213
229.653
118.028
172.192
242.492
148.773
274.243
169.712
145.778
248.871
412.233
390.896
397.523
129.14
409.315
378.232
250.712
191.183
153.383
227.155
134.156
423.598
127.765
237.026
112.984
167.021
138.987
408.582
145.661
223.937
405.454
227.507
241.523
236.083
156.056
224.243
168.943
164.451
133.884
207.235
205.249
133.076
226.835
274.755
132.408
408.155
198.52
186.761
170.153
185.797
236.692
191.463
141.945
134.959
177.713
409.878
299.171
165.983
302.847
170.223
143.241
174.599
170.439
368.322
282.232
321.769
301.379
118.794
284.067
300
174.855
134.907
198.996
402.678
132.226
178.021
164.596
191.176
122.511
252.387
174.859
318.109
393.148
118.97
373.429
397.416
166.58
158.962
395.406
409.739
411.802
251.149
114.283
298.822
223.911
178.62
119.431
383.078
415.773
131.856
205.469
112.636
117.725
384.138
114.431
150.833
196.664
420.099
222.901
127.025
392.168
316.973
407.061
303.764
140.729
168.308
411.492
418.233
141.057
177.344
107.984
174.732
389.044
228.415
225.167
401.003
107.901
359.565
328.366
408.086
300
213.558
99.8793
129.816
142.238
311.742
296.839
140.843
129.416
189.108
199.731
133.508
212.912
126.966
410.728
210.068
122.747
148.359
127.338
179.818
414.924
104.192
146.994
297.18
394.137
239.442
170.056
136.525
182.679
105.97
145.414
167.197
291.845
419.955
300.09
365.368
222.96
266.629
229.832
295.874
234.638
177.921
196.575
393.321
131.34
422.341
399.037
198.068
224.384
132.281
290.244
401.707
162.386
138.783
299.999
117.365
204.864
178.736
348.961
184.827
119.382
399.791
188.705
256.34
94.7351
410.262
174.209
364.097
131.231
153.346
243.166
206.896
382.19
265.668
163.599
172.682
199.266
135.744
412.456
199.976
379.779
194.337
185.231
111.028
196.85
231.174
212.68
179.067
300.538
379.062
227.829
424.051
178.123
222.873
167.063
320.676
94.6914
218.158
405.893
410.224
214.477
148.31
404.908
143.33
159.141
140.222
116.267
166.714
136.602
107.34
163.845
401.912
161.23
204.11
407.062
197.257
213.752
149.787
173.36
156.361
299.123
184.1
374.595
300.259
200.226
121.895
172.866
383.199
146.436
175.926
216.737
156.793
402.97
133.989
177.075
243.522
370.651
421.254
212.753
417.24
132.868
170.096
419.974
387.618
156.354
300.662
142.176
157.201
158.08
243.578
187.612
167.186
402.2
145.167
299.945
177.714
167.664
149.999
148.688
300
300
169.574
393.745
137.916
113.657
422.288
112.003
213.633
142.438
141.945
104.547
201.174
140.03
396.146
177.182
131.03
192.701
188.836
168.042
261.252
160.709
412.655
176.562
297.269
231.291
166.861
423.985
422.699
409.451
196.875
403.904
406.701
151.899
179.831
299.999
423.602
140.159
122.707
403.66
402.874
158.055
402.149
415.473
360.104
404.2
155.004
123.173
251.072
151.089
200.281
234.061
407.185
260.527
408.552
232.324
144.678
216.253
395.667
406.578
176.446
120.531
415.084
117.691
242.75
178.697
172.223
300.335
177.002
404.867
233.107
153.595
358.593
171.294
212.234
141.732
299.998
156.788
334.03
128.259
144.085
248.732
341.008
366.272
206.42
127.535
383.628
210.113
186.022
405.07
363.956
366.506
160.821
130.29
406.397
292.255
405.916
160.595
343.186
394.717
173.562
248.79
109.996
211.724
414.783
168.515
378.778
238.874
122.445
227.409
238.927
109.51
191.517
139.096
178.239
265.315
405.775
197.086
237.465
423.327
172.368
152.93
402.866
192.848
187.73
200.888
137.543
148.095
215.951
133.31
181.331
304.169
202.269
130.843
180.775
173.108
184.092
142.834
365.851
264.328
153.574
206.494
126.939
307.311
218.274
159.884
136.98
399.212
105.055
406.949
416.527
125.689
408.577
371.257
212.222
113.043
421.201
177.087
172.252
125.854
176.466
171.016
125.479
138.606
158.876
172.835
122.948
130.981
145.861
220.692
179.559
133.672
388.319
204.094
300
153.495
132.304
134.303
130.786
404.183
164.54
162.346
213.616
157.291
189.599
229.165
405.478
143.498
140.372
175.507
167.403
279.781
141.925
147.227
177.129
193.336
137.3
410.932
174.728
223.746
404.722
173.151
179.851
167.216
150.21
140.211
169.859
122.748
97.6389
234.874
420.045
269.744
298.848
154.284
382.574
388.411
158.01
298.449
198.464
128.105
143.821
241.677
178.922
408.574
404.866
155.958
106.461
152.101
221.134
334.562
401.906
188.276
130.769
390.687
195.992
131.664
414.868
151.751
192.865
156.589
267.467
200.951
400.884
154.718
184.294
142.293
157.156
365.603
145.824
414.742
311.142
405.762
410.681
143.568
137.209
142.432
406.321
262.73
247.13
179.877
111.039
264.87
120.897
144.992
140.484
388.182
245.837
206.765
401.122
299.996
211.096
227.147
420.27
390.504
402.387
146.836
332.459
206.127
176.978
388.898
384.801
105.059
99.4221
104.608
311.069
140.682
157.478
169.303
231.854
210.367
403.458
220.253
200.362
240.027
107.468
266.667
219.679
188.924
415.396
187.503
223.796
166.696
246.992
145.648
175.595
266.085
403.866
231.15
155.392
106.265
234.556
226.929
227.819
400.788
395.159
299.993
169.494
405.009
116.987
184.536
97.7504
219.006
128.336
96.4613
361.749
211.606
384.049
133.914
185.685
162.727
158.843
403.852
191.696
208.009
155.682
208.836
290.377
245.181
101.129
194.121
182.703
147.797
243.459
397.867
129.583
179.598
402.995
384.912
121.91
188.039
396.553
228.392
229.576
405.713
401.135
346.247
150.918
163.144
246.871
411.765
205.764
207.513
175.349
190.787
168.197
315.986
150.605
182.035
422.636
171.651
400.174
158.099
394.386
400.42
259.685
120.203
108.195
201.484
232.283
150.451
143.961
97.9651
179.208
238.118
211.26
143.872
225.339
165.247
137.154
297.743
193.001
139.748
375.134
422.723
157.129
195.546
353.715
401.702
189.865
381.993
148.529
142.696
400.72
390.938
299.755
103.396
230.741
403.859
174.622
388.095
375.548
160.506
213.07
202.51
162.132
258.121
197.821
138.46
156.969
339.123
365.415
161.008
409.036
178.871
170.194
251.443
259.438
163.957
390.912
165.679
184.861
210.691
102.822
300.169
129.363
420.773
403.228
116.352
187.618
151.749
198.345
399.917
182.606
198.48
299.983
198.319
403.64
171.563
401.913
233.042
280.676
228.98
129.672
212.249
141.1
221.753
399.389
178.601
213.419
202.365
129.327
271.319
181.696
149.108
179.849
136.576
405.661
408.951
151.629
199.086
140.357
135.339
157.573
244.869
388.342
137.603
156.276
379.718
148.773
299.996
147.61
154.293
188.735
374.531
146.613
104.652
218.186
130.847
197.424
169.935
140.57
153.046
136.297
170.044
232.702
222.1
222.175
226.522
207.236
125.765
187.455
139.147
133.758
146.697
144.378
168.665
422.003
109.78
169.217
364.588
178.977
199.508
413.42
358.812
196.733
195.836
340.17
375.954
266.54
403.186
297.711
185.968
316.642
129.862
122.03
128.308
152.035
199.524
273.841
224.074
155.223
155.867
367.056
162.983
191.614
185.056
126.428
114.514
174.564
155.09
170.996
133.773
210.779
202.868
406.722
408.65
238.54
130.294
401.254
400.644
380.736
424.355
134.734
157.394
196.953
251.968
165.216
196.98
217.996
162.745
149.486
178.813
235.958
153.76
186.043
138.842
407.992
119.98
110.362
105.499
398.235
208.835
136.923
303.727
127.716
137.366
132.29
112.243
195.072
268.078
152.11
391.261
298.803
407.14
129.61
309.297
136.495
133.505
132.015
205.459
177.639
133.959
240.676
118.114
424.171
154.525
170.171
130.179
298.41
105.14
198.374
133.663
270.119
134.226
113.873
389.928
302.014
257.606
394.543
132.483
111.782
219.266
136.035
213.513
116.458
161.507
416.583
105.913
209.547
272.124
186.886
166.342
123.221
266.177
134.724
413.875
196.755
246.94
419.066
216.453
130.33
139.302
177.348
419.785
410.525
130.961
379.47
140.666
99.8034
402.728
167.259
200.696
207.505
199.004
122.817
153.768
414.541
297.504
207.83
219.718
140.234
137.782
302.894
171.898
299.982
192.711
263.584
129.385
137.088
204.164
120.348
133.786
228.674
401.508
103.013
154.256
307.965
218.023
397.32
356.033
415.089
148.566
115.818
149.083
219.82
385.285
209.004
212.52
183.357
192.658
345.465
194.638
200.303
171.751
389.042
399.756
242.221
156.697
132.085
149.543
229.911
275.654
130.732
300.693
224.544
193.931
174.176
176.494
267.67
172.613
136.61
205.91
159.59
140.215
154.692
239.364
186.197
115.366
197.642
248.419
201.162
135.361
209.874
296.25
395.353
152.219
395.32
415.166
142.384
128.476
400.065
258.908
183.217
134.06
230.276
420.153
403.482
396.96
148.985
208.611
176.817
125.311
185.816
137.991
206.948
216.842
365.354
414.018
161.49
220.637
216.607
410.448
126.783
199.972
140.221
228.381
176.053
363.78
374.645
176.946
184.129
311.537
192.312
215.266
410.214
141.745
226.417
399.408
358.346
198.392
400.868
257.591
393.483
191.234
135.357
236.742
119.728
107.136
401.828
116.67
160.323
173.997
156.666
113.362
180.206
178.658
139.827
153.508
171.542
419.321
238.305
224.721
112.294
211.058
139.361
414.856
190.824
157.785
253.806
161.71
283.858
121.381
413.457
408.894
370.541
141.181
170.808
134.801
273.487
124.678
125.999
159.97
366.669
206.926
173.397
172.304
163.139
144.419
182.454
392.667
120.395
131.506
138.061
152.801
151.714
171.982
135.698
142.321
136.717
141.551
254.214
125.262
357.77
275.921
172.963
146.395
160.135
389.083
373.164
409.468
188.74
344.686
157.56
193.073
387.393
132.301
400.796
228.303
182.961
208.968
126.353
422.583
102.723
131.787
341.147
389.479
197.028
415.426
173.189
414.741
181.535
149.133
217.884
220.544
150.585
340.413
300.049
113.687
222.94
124.948
362.022
141.55
216.818
305.355
285.607
377.466
204.492
349.321
129.797
160.186
167.7
134.087
141.065
141.076
224.333
140.986
153.157
338.18
182.846
407.803
370.525
369.998
195.638
326.877
208.132
139.631
138.643
234.87
117.386
398.34
154.311
224.439
339.323
370.851
198.273
142.372
201.666
121.393
196.712
196.722
166.142
120.623
113.377
369.714
163.234
155.091
114.205
221.494
121.929
135.246
147.915
419.073
126.993
173.685
209.771
410.508
108.971
125.912
154.378
178.288
200.99
144.491
193.909
129.285
141.308
207.344
168.967
245.362
250.738
200.737
191.344
143.221
411.038
183.652
185.268
203.198
297.633
398.099
171.823
140.931
143.214
136.198
181.127
300
104.809
136.415
403.334
103.618
237.884
103.111
359.163
419.583
329.423
414.388
300.065
146.154
386.328
187.972
162.621
234.751
144.477
232.61
285.352
205.614
404.849
241.32
150.713
207.129
156.35
184.557
199.867
402.856
191.375
142.975
134.163
170.417
192.972
113.748
406.536
157.632
396.666
155.541
134.361
300.074
135.508
421.54
170.384
112.418
180.461
144.229
156.081
225.768
155.921
231.012
197.403
218.2
236.981
138.519
117.831
253.939
406.651
118.513
148.954
416.335
130.498
109.615
174.664
141.532
398.796
217.043
154.945
229.803
417.635
287.745
162.314
137.526
193.774
213.777
160.336
95.6411
160.095
136.114
177.31
260.011
216.169
109.857
168.486
180.212
403.837
133.832
372.187
121.26
406.316
144.432
176.587
377.413
270.024
122.345
399.949
411.966
168.619
357.513
190.874
197.57
390.81
138.176
263.559
151.113
194.371
166.084
333.912
176.37
199.009
100.996
100.417
394.459
414.403
240.981
158.738
377.304
124.743
300
136.035
211.827
126.635
147.27
365.12
162.69
274.197
171.824
191.041
194.322
188.435
95.3011
104.123
131.119
189.06
139.727
220.963
368.472
398.935
176.824
340.365
163.69
204.24
134.736
333.393
124.696
203.848
143.041
118.867
111.697
132.32
401.435
402.988
165.882
132.703
413.34
128.068
185.743
152.834
163.849
143.012
183.435
130.395
132.404
332.888
268.917
167.628
176.849
298.757
173.541
238.476
128.343
153.572
196.501
300.104
162.457
124.636
409.317
203.619
299.995
130.069
401.726
391.121
227.78
151.588
221.902
400.824
177.052
221.175
372.036
151.867
346.721
401.325
171.065
410.249
172.266
418.569
161.988
193.01
169.134
183.295
177.824
320.859
401.371
170.441
220.218
335.536
156.489
161.713
113.708
151.099
357.862
174.232
360.362
409.094
170.312
175.253
150.397
207.578
164.121
414.832
263.69
161.954
406.071
198.613
198.971
340.253
175.207
142.943
250.697
405.443
419.197
142.246
400.253
101.878
157.535
222.024
393.909
153.221
147.953
194.915
203.43
140.844
241.33
177.125
139.022
143.485
199.601
408.322
97.0183
387.734
134.522
100.678
155.766
130.393
233.642
118.865
157.214
267.656
173.546
134.496
393.142
182.011
103.962
383.876
179.474
196.465
196.135
234.303
362.568
300.822
144.838
364.293
217.02
175.053
182.202
144.213
246.911
197.421
231.99
237.977
155.215
204.82
134.258
299.004
146.031
380.531
174.731
223.915
237.25
414.611
200.168
173.327
134.531
133.895
178.683
203.935
134.241
393.291
118.447
170.082
131.646
134.691
353.829
159.765
391.328
404.416
179.916
130.248
156.768
144.439
167.759
194.117
408.253
181.804
141.778
195.237
419.6
167.8
133.289
326.917
190.738
133.617
234.693
176.252
158.752
131.259
188.916
411.377
210.845
401.039
127.85
415.444
224.436
225.368
406.266
152.548
365.697
187.734
220.624
175.477
162.576
125.751
102.395
194.921
297.942
298.544
414.171
166.621
314.481
135.638
398.325
121.097
161.013
175.156
208.989
225.927
157.608
104.687
157.907
139.556
128.004
186.978
134.627
189.891
171.291
213.548
240.58
158.014
165.821
388.208
143.24
156.672
135.969
149.787
409.891
282.663
154.465
134.087
209.177
151.015
164.149
409.912
270.766
151.688
124.491
177.584
320.281
401.497
173.338
160.006
135.56
152.614
152.779
133.86
134.574
370.997
153.462
226.537
375.528
197.996
217.654
411.249
193.786
398.21
202.808
108.101
379.657
243.734
208.137
403.272
131.95
414.337
384.756
407.519
206.524
300.819
176.179
175.723
164.549
161.489
185.288
299.974
299.692
151.286
196.336
168.045
193.433
397.542
254.321
232.303
331.024
402.585
136.63
206.627
405.81
391.829
139.19
396.542
202.868
157.262
174.512
418.915
163.804
162.568
331.424
125.873
183.177
400
272.467
165.275
342.359
228.765
413.274
146.974
203.594
210.646
209.686
156.542
213.368
158.732
138.447
153.522
143.133
372.977
154.664
147.235
400.997
103.737
171.081
147.461
182.731
234.652
165.511
218.446
217.694
203.123
165.339
229.278
188.776
172.82
160.185
127.672
97.0603
139.621
339.139
188.098
209.923
208.132
383.301
327.141
301.21
156.985
215.8
166.706
211.983
195.379
249.919
181.497
168.139
402.05
346.964
98.8812
225.521
211.023
400.936
358.926
145.404
178.326
256.639
212.398
306.866
214.019
145.689
98.1937
125.606
100.051
340.084
208.539
206.534
395.857
202.036
188.025
376.955
252.443
181.543
191.608
198.376
410.41
297.687
161.762
388.163
295.962
300.064
347.529
414.412
173.662
357.696
182.735
210.476
140.107
179.843
215.19
189.455
144.081
108.055
317.438
146.597
141.283
231.937
380.804
324.56
161.338
372.895
111.953
406.265
300.662
299.77
199.794
206.185
290.984
162.824
119.161
153.598
405.805
187.261
408.08
403.532
123.204
191.634
125.397
124.825
192.74
208.399
124.891
231.5
149.184
157.848
195.026
352.954
134.264
168.814
343.637
201.478
172.15
161.008
197.267
235.3
376.258
192.197
207.42
154.253
213.042
193.304
280.507
210.817
199.072
194.268
175.583
192.62
399.057
172.433
184.635
241.691
241.397
122.312
210.268
150.418
127.86
216.183
354.538
331.07
151.111
141.028
237.522
240.235
239.065
237.911
237.021
381.771
400.089
365.731
396.451
263.474
371.667
134.814
129.651
195.339
156.642
160.648
124.758
135.8
177.108
377.997
134.367
194.257
316.268
180.794
216.627
121.457
184.704
130.103
224.677
159.134
218.083
405.052
174.834
214.086
191.769
129.986
202.142
137.178
383.692
340.091
415.581
116.703
245.109
151.326
138.819
150.149
173.887
179.085
301.192
398.007
145.927
132.16
403.755
392.262
133.364
327.212
404.691
108.916
167.272
386.305
398.136
170.627
154.948
199.343
401.264
218.439
236.358
194.706
224.529
175.932
408.874
252.336
166.775
422.817
150.42
190.115
170.32
260.169
142.421
126.608
175.601
175.064
202.654
158.889
395.84
136.436
401.65
409.96
143.441
236.407
408.057
387.587
408.634
218.764
206.649
184.631
195.775
149.842
110.943
184.561
245.115
183.95
424.068
358.234
128.263
124.342
155.015
395.907
185.684
133.33
96.0099
166.519
186.795
395.522
196.254
179.293
134.893
167.946
349.444
142.893
225.777
150.514
142.037
411.29
407.955
133.886
235.35
413.59
221.024
413.542
159.733
375.49
148.545
413.7
224.369
219.504
301.36
330.391
318.303
185.116
150.261
201.004
105.921
173.299
119.622
181.394
105.497
172.352
175.007
194.515
185.133
290.763
401.082
364.544
214.968
395.617
319.844
367.069
199.623
134.22
263.02
408.281
143.54
141.192
151.893
148.85
116.333
164.518
147.764
392.012
416.225
373.261
232.519
131.998
123.773
130.154
384.845
332.267
179.209
173.958
393.17
194.278
264.23
401.563
136.904
115.935
176.796
118.385
146.393
184.868
224.954
227.142
368.726
201.538
185.451
370.521
275.237
392.56
313.019
311.983
201.892
402.684
124.373
307.445
408.865
134.028
247.237
401.562
321.414
332.582
196.174
299.045
166.961
194.159
118.591
102.239
188.861
131.766
177.052
137.062
239.35
130.059
201.476
116.065
230.722
214.351
145.624
192.972
141.578
216.071
157.554
156.544
233.629
137.638
223.601
194.3
264.15
161.481
167.746
322.89
137.476
158.312
361.582
383.18
210.514
163.997
229.965
178.611
362.921
149.338
176.575
237.676
234.211
167.443
267.397
197.189
160.155
201.737
198.738
169.64
134.545
301.384
382.098
183.024
212.888
168.452
203.278
404.85
201.395
404.643
225.972
220.299
133.391
134.01
96.4023
296.215
200.64
404.344
184.087
158.582
403.384
274.706
135.927
375.563
162.39
416.238
161.576
142.112
196.925
140.196
413.745
99.6723
166.034
353.923
223.141
251.834
326.449
204.898
184.257
184.986
167.121
140.861
198.972
219.006
381.05
378.065
300.049
400.923
238.133
191.688
137.977
276.235
141.584
330.802
138.27
299.63
163.66
226.985
145.444
236.315
168.852
222.152
396.296
314.032
126.022
376.472
412.662
135.574
220.893
190.326
197.172
145.722
242.32
235.305
162.313
418.262
407.572
272.493
313.322
299.957
192.337
112.593
132.827
185.65
266.928
361.591
181.553
179.775
144.514
147.93
205.045
418.34
143.909
413.279
196.562
168.736
151.988
102.544
131.89
256.5
147.418
198.192
407.667
218.371
131.67
189.31
379.535
96.3773
95.8851
179.035
192.815
154.084
207.159
219.089
199.99
401.212
140.495
299.955
104.895
415.118
273.239
258.784
178.683
142.047
401.861
222.559
407.569
139.528
173.278
170.354
212.402
222.779
191.015
184.093
187.814
407.39
398.394
199.623
210.478
133.691
164.558
171.297
409.259
131.251
174.019
401.476
204.631
198.611
348.869
403.941
143.406
393.266
217.504
388.566
204.469
147.48
168.636
189.146
400.436
121.431
187.573
234.231
210.592
167.011
178.603
368.493
421.112
132.215