/*--------------------------------*- C++ -*----------------------------------*\
| =========                 |                                                 |
| \\      /  F ield         | OpenFOAM: The Open Source CFD Toolbox           |
|  \\    /   O peration     | Version:  dev                                   |
|   \\  /    A nd           | Web:      www.OpenFOAM.org                      |
|    \\/     M anipulation  |                                                 |
|*---------------------------------------------------------------------------*|
|* OpenFOAM for Windows 18.02 (v1)                                           *|
|* Built by CFD Support, www.cfdsupport.com (based on Symscape).             *|
\*---------------------------------------------------------------------------*/
FoamFile
{
    version     2.0;
    format      ascii;
    class       volVectorField;
    location    "1e-005";
    object      U;
}
// * * * * * * * * * * * * * * * * * * * * * * * * * * * * * * * * * * * * * //

dimensions      [0 1 -1 0 0 0 0];

internalField   nonuniform List<vector> 
23640
(
(-653.043 3444.28 0)
(-22.3078 3764.6 0)
(1383.63 747.196 0)
(-20.4369 141.763 0)
(439.54 3232.29 0)
(-688.254 2568.88 0)
(-174.056 3541.21 0)
(-251.181 3049.29 0)
(-426.385 3275.57 0)
(2835.72 808.67 0)
(-37.5789 523.956 0)
(1159.09 3169.65 0)
(412.92 3950.7 0)
(397.81 3202.91 0)
(-1780.7 1788.35 0)
(-553.911 2635.03 0)
(1450.05 3738.69 0)
(-145.56 1281.84 0)
(55.7345 890.724 0)
(-1756.27 2696.17 0)
(-101.575 638.396 0)
(1321.41 375.997 0)
(-97.8992 654.952 0)
(177.436 653.074 0)
(-407.233 3223.71 0)
(371.966 3442.56 0)
(-127.508 2647.73 0)
(1000.32 2959.53 0)
(1744.66 3658.87 0)
(241.042 3797.35 0)
(158.47 3946.94 0)
(-2.85514 4.75095 0)
(-106.643 633.768 0)
(-1610.97 2879.48 0)
(-2271.66 2040.71 0)
(-2091.04 1525.89 0)
(1342.93 3668.22 0)
(939.083 4108.56 0)
(1847.32 1135.72 0)
(118.288 437.359 0)
(1745.34 2871.66 0)
(-379.232 3295.16 0)
(619.803 3258.38 0)
(-2353.73 1568.42 0)
(-16.274 87.5724 0)
(1169.86 2122.85 0)
(623.303 3691.57 0)
(1027.26 3361.17 0)
(2830.85 802.063 0)
(-246.651 3018.33 0)
(2.4709 17.0991 0)
(-81.2103 1242.71 0)
(-2354.82 1177.2 0)
(-908.014 3795.27 0)
(-18.4293 139.572 0)
(1772.65 362.296 0)
(-1013.72 2552.22 0)
(-180.508 3264.42 0)
(21.1688 3587.21 0)
(36.7585 107.402 0)
(132.481 3968.61 0)
(-724.114 2351.99 0)
(52.0852 292.883 0)
(-73.2551 1189.19 0)
(322.17 3610.92 0)
(-79.2686 1197.59 0)
(-391.596 2656.91 0)
(-449.743 3242.93 0)
(221.29 1288.42 0)
(607.449 3265.27 0)
(93.8402 343.482 0)
(-1609.45 2929.12 0)
(-177.659 878.072 0)
(-1207.3 3685.33 0)
(574.21 2665.71 0)
(-3.80212 7.58617 0)
(-421.08 54.9697 0)
(474.686 3917.64 0)
(55.7531 877.437 0)
(-38.59 308.253 0)
(1061.42 2040.67 0)
(2113.74 1902.51 0)
(153.39 3469.37 0)
(159.553 3463.87 0)
(297.248 3614.2 0)
(-2681.02 572.974 0)
(-86.3335 1253.43 0)
(140.489 483.883 0)
(-216.433 807.212 0)
(-1634.36 1907.48 0)
(-317.858 3616.13 0)
(-234.665 3275.07 0)
(-2525.72 1558.37 0)
(-147.568 870.237 0)
(31.4052 1268.64 0)
(76.0761 3813.44 0)
(-70.665 1155.33 0)
(2336.7 690.461 0)
(-135.824 3033.16 0)
(-2641.83 1203.63 0)
(2522.8 1407.54 0)
(-909.212 3773.26 0)
(180.017 642.736 0)
(1166.78 3853.31 0)
(2500.78 1956.21 0)
(995.285 4106.22 0)
(55.9399 200.853 0)
(-1120.42 3953.9 0)
(-690.041 3329.25 0)
(-84.9316 3120.4 0)
(263.143 4089.76 0)
(-171.08 872.58 0)
(290.139 3303.35 0)
(1787.5 2837.15 0)
(1940.38 1591.63 0)
(-1387.76 3958.66 0)
(-1830.67 1716.47 0)
(-361.399 4121.94 0)
(-796.647 3507.44 0)
(258.095 3768.94 0)
(176.681 596.254 0)
(3.56196 35.6287 0)
(2303.65 869.664 0)
(-1.88934 37.7936 0)
(1235.46 2648.33 0)
(141.39 514.655 0)
(2.7209 13.8402 0)
(2298.03 1485.42 0)
(-689.044 2603.57 0)
(1741.6 2932.75 0)
(245.756 2999.37 0)
(2292.57 1854.91 0)
(326.304 3973.63 0)
(-830.283 2691.77 0)
(-1168.61 3853.95 0)
(142.099 485.579 0)
(-81.2104 556.044 0)
(-420.655 3228.51 0)
(42.6641 539.052 0)
(-76.8806 1091.22 0)
(-127.502 3057.22 0)
(-1016.07 2540.27 0)
(-188.68 899.925 0)
(-31.906 521.169 0)
(220.967 888.941 0)
(-133.087 3185.49 0)
(-56.9982 464.124 0)
(108.982 432.557 0)
(-358.666 3609.86 0)
(263.278 1194.03 0)
(-211.778 2989.87 0)
(756.887 2364.37 0)
(163.316 3451.65 0)
(-8.51481 221.606 0)
(1716.24 2538.14 0)
(-1181.86 4068.79 0)
(-163.632 3569.42 0)
(-645.66 3257.57 0)
(353.616 2711.54 0)
(-95.3625 2637.2 0)
(-1568.65 1856.65 0)
(-2673.92 755.167 0)
(-2096.57 1515.28 0)
(-240.125 2637.29 0)
(1476.64 3885.75 0)
(1440.67 3968.75 0)
(72.3916 263.96 0)
(-1676.53 1774.5 0)
(53.4535 197.841 0)
(2319.41 1845.9 0)
(1028.92 3354.37 0)
(2039.55 1516.28 0)
(557.536 2669.99 0)
(-733.334 3321.29 0)
(59.1187 252.116 0)
(-52.7295 231.14 0)
(1740.74 2905.63 0)
(2127.99 1659.68 0)
(-38.8017 302.288 0)
(91.9691 3815.81 0)
(-13.3808 88.669 0)
(1735.86 347.597 0)
(-426.265 3223.56 0)
(-1109.52 2994.24 0)
(1685.65 3610.1 0)
(306.67 1842.09 0)
(-974.354 2760.91 0)
(-2618.51 1425.23 0)
(-42.4901 120.364 0)
(-1098.55 2978.5 0)
(-604.798 3020.67 0)
(71.7522 507.981 0)
(-11.3422 44.0649 0)
(162.252 3466.46 0)
(1249.01 3799.47 0)
(125.348 453.864 0)
(2482.15 1902.27 0)
(-1063.86 2359.9 0)
(2112.1 630.482 0)
(1576.07 2160.61 0)
(-8.068 718.721 0)
(2771.74 1760.6 0)
(1011.12 4024.83 0)
(-386.386 3301.87 0)
(-80.9207 812.604 0)
(201.57 3600.58 0)
(2011.99 633.783 0)
(-103.069 650.061 0)
(2296.11 1382.74 0)
(69.8718 261.31 0)
(392.516 3250.33 0)
(-484.364 3245.08 0)
(-158.064 3470.42 0)
(215.528 3610.33 0)
(774.24 2340.06 0)
(-3.88844 3218.96 0)
(1079 3349.08 0)
(-1734.18 2738.38 0)
(-229.93 2808.13 0)
(-2981.75 2456.71 0)
(-228.31 3488.48 0)
(62.2099 526.361 0)
(-15.2856 714.564 0)
(1189.34 3155.9 0)
(-175.398 663.692 0)
(210.058 3312.74 0)
(-460.526 3417.81 0)
(2.9168 35.1286 0)
(-2970.09 2345.43 0)
(-317.967 3617.96 0)
(-544.399 3492.2 0)
(-1341.91 3784.27 0)
(1769.82 2688.03 0)
(-501.857 3261.48 0)
(-630.397 3281.17 0)
(2092.7 1972.79 0)
(95.4252 349.567 0)
(-14.866 3228.32 0)
(-360.226 3605.28 0)
(1264.5 1867.18 0)
(2463.69 1477.32 0)
(-1753.25 1589.97 0)
(1776.01 2846.42 0)
(-350.393 3230.3 0)
(-17.2964 153.94 0)
(1012.87 3856.07 0)
(17.2558 3162.95 0)
(2298.26 457.9 0)
(1.93014 298.569 0)
(154.942 560.06 0)
(34.9468 101.413 0)
(1050.97 3289.55 0)
(617.791 3665.44 0)
(59.7489 248.614 0)
(71.0538 3582.22 0)
(116.537 433.252 0)
(-2288.33 612.402 0)
(-1255.37 3829.75 0)
(-43.1198 159.83 0)
(-44.7591 161.736 0)
(-23.035 107.787 0)
(615.494 4091.9 0)
(2429.67 1604.02 0)
(-597.899 3349.33 0)
(2101.64 3499.19 0)
(643.812 3264.95 0)
(631.85 2679.84 0)
(-163.008 2965.49 0)
(72.8447 3589.93 0)
(73.5325 1308.86 0)
(2820.87 1136.83 0)
(2205.42 3540.48 0)
(173.863 587.37 0)
(-42.0892 117.172 0)
(2330.51 1428.47 0)
(-1502.41 2968.39 0)
(1715.06 3639.17 0)
(4.34306 36.029 0)
(19.3897 1178.78 0)
(-759.171 3306.39 0)
(139.181 505.575 0)
(2581.44 2979.15 0)
(378.504 1848.65 0)
(-24.4445 492.098 0)
(-512.813 2841.51 0)
(880.086 2288.83 0)
(-123.949 2896.69 0)
(1285.48 2179.54 0)
(-781.311 3496.24 0)
(-22.922 499.83 0)
(-226.926 3713.13 0)
(-1365.08 3583.65 0)
(-27.5237 3270.26 0)
(-218.479 2772.5 0)
(43.6097 547.015 0)
(220.573 3094.99 0)
(1636.04 2980.57 0)
(-1156.46 3697.85 0)
(366.32 3418.45 0)
(1151.71 3320.91 0)
(-1624.86 1778.08 0)
(-76.6521 1163.91 0)
(2.04126 33.5728 0)
(-260.057 3267.1 0)
(-85.942 581.194 0)
(1896.31 3687.54 0)
(2233.55 1960.63 0)
(-1223.63 2302.22 0)
(-19.8439 120.112 0)
(-194.262 889.432 0)
(1252.05 3906.03 0)
(2291.67 1510.14 0)
(-49.3922 231.641 0)
(113.684 880.523 0)
(-37.5959 731.534 0)
(710.719 2664.75 0)
(-2627.78 1453.51 0)
(-1746.76 544.343 0)
(31.4889 1243.23 0)
(-560.431 2739.73 0)
(731.063 3214.17 0)
(-1482.57 2973.43 0)
(-2296.13 2018.16 0)
(987.926 2977.66 0)
(-1188.28 3836.66 0)
(-2432 1287.45 0)
(46.4032 149.104 0)
(-101.941 3099.3 0)
(492.592 3036.16 0)
(5.30595 11.9188 0)
(-401.555 1805.32 0)
(-273.869 3070.97 0)
(-1124.48 2980.69 0)
(-721.108 2925.56 0)
(-456.643 3496.19 0)
(-238.638 3258.93 0)
(1932.11 421.376 0)
(2795.95 1220.06 0)
(221.339 3046.09 0)
(365.031 3420.59 0)
(-2269.03 548.964 0)
(-227.41 1015.06 0)
(1679.26 2560.91 0)
(-7.56119 42.8204 0)
(100.607 500.505 0)
(-129.797 1323.81 0)
(-904.307 2386.76 0)
(1058 3221.88 0)
(269.87 3321.56 0)
(1721.64 2748.22 0)
(-45.1118 166.197 0)
(-2503.15 1200.86 0)
(-1242.73 3894.45 0)
(-303.207 4123.75 0)
(-2269.53 2030.65 0)
(1544.92 3842.67 0)
(83.3139 3012.21 0)
(-841.837 4086.12 0)
(55.8701 293.654 0)
(57.974 520.298 0)
(-921.407 2783.61 0)
(-66.0366 603.044 0)
(-84.4617 1099.05 0)
(1284.13 3288.02 0)
(-26.5974 3269.84 0)
(2815.88 3049.31 0)
(2223.32 3504.34 0)
(2836.76 1002.93 0)
(32.3146 878.608 0)
(-289.427 3767.19 0)
(-2132.99 1389.69 0)
(259.009 929.089 0)
(1254.78 3892.27 0)
(-37.214 720.805 0)
(1234.32 2644.24 0)
(-1242.73 3885.38 0)
(36.4239 105.793 0)
(-3266.56 1946.29 0)
(-98.2148 3079.42 0)
(518.846 2708.9 0)
(175.586 885.667 0)
(262.733 943.291 0)
(-29.1087 3241.02 0)
(-218.336 1028.34 0)
(-79.7623 3234.25 0)
(-1231.17 3932.91 0)
(-2612.44 1221.76 0)
(1452.91 3978.21 0)
(123.601 454.528 0)
(-2302.66 3379.36 0)
(32.3123 1387.92 0)
(-907.335 2383 0)
(-765.885 112.538 0)
(-2363.69 1188.26 0)
(-2098.2 2073.75 0)
(152.908 570.178 0)
(-9.4301 41.6644 0)
(1097.45 3945.34 0)
(625.813 3698.01 0)
(-1132.77 2334.74 0)
(-1478.07 2356.33 0)
(77.775 262.359 0)
(1038.79 2501.93 0)
(2116.87 3687.82 0)
(552.987 3919.39 0)
(-393.008 3428.06 0)
(37.3797 145.392 0)
(1600.46 3684.25 0)
(2285.85 1645.79 0)
(345.58 2793.56 0)
(-1049.22 2390.44 0)
(-1.42391 301.949 0)
(-47.8545 196.429 0)
(-662.648 3200.13 0)
(-51.6675 461.76 0)
(1688.9 2953.99 0)
(952.566 2277.73 0)
(-133.975 3964.77 0)
(909.617 2868.01 0)
(1639.16 2816.2 0)
(-42.0812 161.381 0)
(44.0489 1367.58 0)
(521.911 3387.31 0)
(-1027.05 2285.25 0)
(2796.5 939.862 0)
(-1881.22 3630.01 0)
(-4.62949 41.1958 0)
(2179.34 955.586 0)
(-69.1443 595.645 0)
(46.4008 2834.4 0)
(1705.25 3451.82 0)
(14.5431 74.1718 0)
(-65.9996 249.618 0)
(-108.105 670.857 0)
(-26.0696 2945.27 0)
(96.6039 495.376 0)
(-2059.17 1456.47 0)
(1951.15 1731.4 0)
(1517.23 1795.8 0)
(39.481 119.411 0)
(-795.348 2920.73 0)
(61.4503 291.203 0)
(2152.9 1360.53 0)
(-2735.72 785.576 0)
(-290.193 2090.76 0)
(-316.262 2823.25 0)
(-1028.18 2345.96 0)
(2808.96 1137.31 0)
(25.1601 660.267 0)
(2855.67 999.247 0)
(-0.0317029 0.0325842 0)
(-380.407 2668.25 0)
(56.9064 243.865 0)
(-925.802 2461.79 0)
(-58.565 1447.9 0)
(-1230.88 3868.08 0)
(-732.06 3501.97 0)
(2217.47 1958.61 0)
(-45.69 156.021 0)
(2790.3 1043.04 0)
(888.853 2885.07 0)
(-495.371 2850.71 0)
(933.986 3173.6 0)
(0.0167584 0.0223875 0)
(2250.11 1590.3 0)
(251.179 3781.1 0)
(-2196.81 1498.4 0)
(1184.97 302.834 0)
(-2692.31 1098.95 0)
(-594.832 2913.99 0)
(172.454 3045.56 0)
(-458.868 3698.05 0)
(-20.3794 104.358 0)
(3103.92 2236.48 0)
(1095.95 3035.67 0)
(-880.024 2236.6 0)
(630.474 3263.8 0)
(1.90112 1.9196 0)
(2317.23 1514.93 0)
(2.56355 48.9956 0)
(-210.382 2880.77 0)
(-1975.4 3155.28 0)
(-268.229 3190.38 0)
(-2733.16 799.283 0)
(1499.64 2095.4 0)
(2471.99 1285.55 0)
(-144.534 646.652 0)
(2578.34 1819.6 0)
(-147.306 3919.85 0)
(-712.925 3754.74 0)
(443.907 2727.17 0)
(-8.58878 65.4832 0)
(871.274 3869.25 0)
(158.74 572.492 0)
(-136.573 3132.63 0)
(-374.323 3436.38 0)
(-2534.94 1545.22 0)
(-487.885 1833.19 0)
(2212.68 1527.37 0)
(1016.97 3994.41 0)
(231.775 3815.04 0)
(-23.7862 362.421 0)
(-1942.72 3640.5 0)
(-178.69 3195.5 0)
(-74.4159 3746.63 0)
(50.9325 3583.01 0)
(-2164.79 2050.5 0)
(1439.79 3911.31 0)
(-1397.51 3634.75 0)
(670.258 3969.35 0)
(1060.24 2151.03 0)
(759.721 3253.3 0)
(-2739.9 736.89 0)
(-2683.37 632.585 0)
(-113.413 688.176 0)
(-738.28 3297.2 0)
(875.747 3201.78 0)
(1365.71 3805.35 0)
(-362.574 3175.29 0)
(-35.2177 452.059 0)
(-1111.37 2260.31 0)
(16.6903 1484.91 0)
(-0.0118174 0.00644345 0)
(-1748.53 1619.47 0)
(-714.717 3508.65 0)
(329.191 3294.75 0)
(137.779 727.239 0)
(848.52 2965.03 0)
(169.513 877.044 0)
(55.8583 3585.98 0)
(-423.272 3418.71 0)
(-171.308 661.234 0)
(2153.49 1687.34 0)
(-998.626 2002.87 0)
(-2128.25 435.261 0)
(-207.386 3922.23 0)
(-2380.86 1153.69 0)
(2471.35 1577.59 0)
(-1165.64 3937.34 0)
(1533.31 2811.48 0)
(-142.093 2688.12 0)
(-262.716 3744.61 0)
(-104.975 3132.75 0)
(524.465 3389.25 0)
(716.851 3770.15 0)
(636.052 3234.26 0)
(-1690.91 1652.03 0)
(215.463 853.338 0)
(662.064 3430.29 0)
(665.62 3464.56 0)
(1378.58 1835.6 0)
(-495.497 3271.16 0)
(-1568.31 321.287 0)
(-3056.9 2373.36 0)
(1590.81 1776.61 0)
(-755.219 3813.78 0)
(367.335 3243.25 0)
(-1842.39 1827.96 0)
(-75.9514 561.181 0)
(56.4328 250.946 0)
(-40.6845 2615.3 0)
(-104.384 468.738 0)
(-190.38 3246.57 0)
(1589.61 2130.27 0)
(-77.6142 1034.12 0)
(-101.848 671.438 0)
(536.041 2758.31 0)
(86.6865 767.992 0)
(1772.76 1658.55 0)
(2774.29 1201.23 0)
(0.0596827 0.0712825 0)
(445.483 3250.4 0)
(-136.204 3136.27 0)
(-1036.02 4141.57 0)
(-480.605 4149.17 0)
(40.2663 882.356 0)
(2254.43 1024.76 0)
(-2808.9 557.315 0)
(2658.44 1537.19 0)
(752.868 3640.43 0)
(11.2011 70.6779 0)
(-18.8083 3353.6 0)
(-808.372 4108.41 0)
(866.738 2976 0)
(109.969 868.574 0)
(208.191 776.705 0)
(28.0477 2748.15 0)
(2639.89 1503.99 0)
(428.691 3433.2 0)
(80.8064 762.226 0)
(-14.1105 291.582 0)
(445.916 3235.42 0)
(1776.84 2873.21 0)
(-325.058 3166.44 0)
(48.6517 3584 0)
(38.2651 1223.53 0)
(-1737.53 2739.98 0)
(-932.858 2638.34 0)
(-469.843 3719.71 0)
(-2698.97 1043.84 0)
(-46.5792 467.247 0)
(25.0744 651.114 0)
(-44.0324 154.052 0)
(2233.54 1591.51 0)
(-206.259 3831.05 0)
(2344.91 446.641 0)
(-1843.6 2136.82 0)
(986.8 3094.53 0)
(-645.297 3299.39 0)
(143.758 734.165 0)
(419.292 3715.61 0)
(-202.701 2984.87 0)
(1010.69 3230.1 0)
(273.824 3764.16 0)
(-799.391 2560.54 0)
(-1961.27 2145.23 0)
(-2298.24 756.862 0)
(-34.6349 3230.78 0)
(770.822 3799.01 0)
(-2.23778 40.6044 0)
(-76.3556 821.059 0)
(1665.48 2958.11 0)
(-947.504 3346.18 0)
(-13.3828 286.164 0)
(-586.628 3273.55 0)
(54.4483 1277.26 0)
(1269.03 3255.9 0)
(-43.4405 704.488 0)
(-366.132 3777.26 0)
(2128.73 1407.83 0)
(2679.15 3160.27 0)
(222.554 3002.03 0)
(-1513.15 2260.7 0)
(85.8386 3830.37 0)
(-3279.03 2651.02 0)
(-22.2457 120.602 0)
(77.5509 3820.03 0)
(1305.74 3204.64 0)
(1121.41 3926.92 0)
(1960.71 1760.52 0)
(-345.38 3212.86 0)
(2099.93 792.156 0)
(-106.829 462.027 0)
(163.983 3877.38 0)
(1891.53 342.995 0)
(-6.8347 3374.85 0)
(-43.9494 715.135 0)
(-1069.89 2603.49 0)
(-1248.53 3930.61 0)
(1057.62 3219.42 0)
(-2410.54 1638.27 0)
(5.60944 40.0145 0)
(226.802 884.159 0)
(-295.619 3637.3 0)
(-1754.97 2716.81 0)
(-47.3025 136.571 0)
(2275.4 1464.48 0)
(-142.846 638.532 0)
(681.444 3984.92 0)
(-40.2188 2585.6 0)
(-246.322 3205.86 0)
(-1313.2 2130.17 0)
(-1376.31 3949.15 0)
(-2399.37 1262.12 0)
(665.973 168.33 0)
(-623.793 107.999 0)
(492.202 3027.22 0)
(-11.9852 51.6686 0)
(216.64 838.726 0)
(-544.045 2781.3 0)
(3.42919 36.0074 0)
(44.7652 3177.47 0)
(-460.074 3409.16 0)
(-1941.3 1888.77 0)
(-3.18955 1148.77 0)
(954.072 3751.62 0)
(-249.051 3935.27 0)
(471.355 3283.12 0)
(-625.962 3775.57 0)
(-23.1256 356.646 0)
(35.8761 100.173 0)
(-3.40994 3466.95 0)
(355.708 3249.92 0)
(2357.63 1862.62 0)
(-636.983 3284.82 0)
(-1280.8 3850.92 0)
(-33.7722 133.614 0)
(-1866.66 2818.1 0)
(1139.4 2012.45 0)
(-7.23245 41.1869 0)
(1791.77 3711.12 0)
(1809.15 379.402 0)
(49.0333 1466.39 0)
(322.086 3305.65 0)
(35.2764 1518.1 0)
(1601.71 3508.77 0)
(1158.9 2248.92 0)
(1823.74 2880.55 0)
(140.171 538.616 0)
(210.303 3310.22 0)
(-0.426908 0.696209 0)
(-3.33472 1170.7 0)
(1829.68 2729.84 0)
(174.149 612.907 0)
(1149.75 3868.16 0)
(-820.972 3326.2 0)
(122.653 442.955 0)
(2659.5 1590.81 0)
(-98.3243 391.799 0)
(2216.43 2245.15 0)
(-146.2 856.74 0)
(136.36 495.348 0)
(2411.16 1309 0)
(-2908.65 2638.65 0)
(-1267.27 329.149 0)
(-1976.44 1533.48 0)
(1002.02 2414.51 0)
(-882.548 3460.62 0)
(-114.323 679.695 0)
(2049.82 1348.62 0)
(2444.79 1802.69 0)
(-867.163 2273.29 0)
(2808.99 1178.73 0)
(2446.28 2695.68 0)
(-1489.43 2714.06 0)
(851.76 537.19 0)
(-2190.98 3300.88 0)
(1080.9 3806.45 0)
(-2269.18 2223.11 0)
(-16.0811 166.712 0)
(269.664 3427.21 0)
(-1000.82 4037.71 0)
(54.5935 359.45 0)
(-122.053 484.895 0)
(1138.27 4130.09 0)
(270.606 3321.8 0)
(1198.07 725.144 0)
(1697.67 2929.11 0)
(50.1213 348.281 0)
(59.8125 3346.21 0)
(-55.8831 2708.28 0)
(-702.26 3275.79 0)
(47.7174 342.834 0)
(-2331.57 1186.23 0)
(1213.6 3830.51 0)
(301.328 1718.67 0)
(-919.681 4055.3 0)
(283.459 1055.93 0)
(1464.05 3912.76 0)
(-689.162 3762.75 0)
(181.745 1775.54 0)
(2144.54 3557.44 0)
(-625.823 3522.6 0)
(-794.838 3830.91 0)
(719.103 3480.23 0)
(1.97777 2.39168 0)
(229.605 2754.81 0)
(-1030.95 3951.56 0)
(-76.3215 1287.03 0)
(105.28 384.711 0)
(-471.97 4155.42 0)
(81.431 3599.53 0)
(-17.9787 1508.96 0)
(-32.5717 3571.96 0)
(-36.3334 144.24 0)
(2002.75 628.492 0)
(-30.3422 456.716 0)
(1291.91 3010.24 0)
(168.305 995.371 0)
(-1473.58 2729.99 0)
(1250.73 2248.91 0)
(715.486 3153.97 0)
(-1252.34 2112.99 0)
(470.262 3263.75 0)
(206.177 765.699 0)
(649.646 3981.12 0)
(-49.0481 199.317 0)
(8.48203 3482.44 0)
(3.63544 1440.19 0)
(-2249.43 739.213 0)
(-2641.15 1451.61 0)
(0.739479 34.863 0)
(2183.5 899.642 0)
(-2251.29 775.552 0)
(2257.82 812.985 0)
(5.93486 57.851 0)
(-1101.23 2576.43 0)
(1350.98 3804.18 0)
(-1269.31 2917.12 0)
(122.265 3298.72 0)
(3262.8 2459.83 0)
(-2147.83 1482.66 0)
(222.214 931.777 0)
(-305.869 3763.81 0)
(2442.32 2532.47 0)
(142.303 553.233 0)
(-129.632 2515.25 0)
(-54.7169 314.455 0)
(1151.85 3535.72 0)
(-115.99 424.443 0)
(-296.562 3042.54 0)
(-1152.97 2426.64 0)
(-177.431 3175 0)
(265.196 4110.03 0)
(2867.98 1070.85 0)
(43.248 128.893 0)
(-881.506 3429.63 0)
(101.033 867.074 0)
(-68.6518 404.482 0)
(-727.641 3796.14 0)
(-2723.44 770.565 0)
(182.452 686.523 0)
(-523.793 3296.25 0)
(39.6338 145.186 0)
(2599.88 552.63 0)
(821.223 2926.63 0)
(-340.366 3566.67 0)
(-284.333 981.859 0)
(-1735.52 1781.86 0)
(-762.678 3266.64 0)
(40.9985 3475.35 0)
(544.912 93.4151 0)
(249.308 830.862 0)
(945.058 2963.86 0)
(1601.7 1213.22 0)
(110.758 425.731 0)
(433.812 2974.97 0)
(899.345 4031.47 0)
(2796.16 1222.41 0)
(19.9043 1508.09 0)
(-682.729 3841.1 0)
(235.897 2770.53 0)
(1138.44 3894.19 0)
(55.4314 1150.76 0)
(436.357 3278.04 0)
(481.04 3546.84 0)
(673.337 2659.46 0)
(-226.698 2084.18 0)
(-2835.88 1743.56 0)
(-731.829 3902.98 0)
(71.277 1144.86 0)
(-636.051 2797.16 0)
(0.235836 574.748 0)
(716.05 3272.68 0)
(1130.96 4143.36 0)
(-1248.93 3905.98 0)
(-9.37498 216.978 0)
(-662.034 3820.97 0)
(108.572 394.684 0)
(456.785 3243.65 0)
(-279.898 3748.23 0)
(-93.7848 3901.59 0)
(-1923.99 1850.64 0)
(158.443 3144.15 0)
(-24.9488 935.798 0)
(0.0270038 0.0851809 0)
(227.856 3016.98 0)
(-2140.16 1888.02 0)
(-323.381 3055.09 0)
(-2435.53 1451.17 0)
(2145.51 2547.64 0)
(748.018 3613.48 0)
(-543.172 3724.23 0)
(59.8083 202.105 0)
(-602.826 2385.49 0)
(594.332 3879.6 0)
(1.73985 583.221 0)
(-1051.18 4037.92 0)
(-16.8759 64.8327 0)
(2097.1 1565.52 0)
(-2332.72 1345.65 0)
(-99.0789 385.725 0)
(61.6287 300.721 0)
(-65.3907 571.13 0)
(0.182308 0.239121 0)
(-1769.83 3637.29 0)
(46.3943 148.924 0)
(-1172.7 1782.01 0)
(1150.71 3847.31 0)
(-2339.58 3375.94 0)
(-2626.44 1500.91 0)
(14.2994 3719.48 0)
(78.7684 1152.57 0)
(151.345 3902.02 0)
(-2334.44 1203.63 0)
(880.538 2723.08 0)
(-42.0965 311.646 0)
(489.477 2968.6 0)
(-33.3505 136.785 0)
(-38.2206 3006.4 0)
(1984.45 792.382 0)
(-693.099 2731.95 0)
(-1042.15 3215.54 0)
(-2202.96 1127.38 0)
(-116.075 395.45 0)
(1728.08 2550.86 0)
(1566.33 325.641 0)
(-125.199 2715.08 0)
(-2932.46 1790.4 0)
(181.21 689.165 0)
(-30.8975 737.111 0)
(1982.95 827.108 0)
(651.866 3246.99 0)
(171.94 3913.34 0)
(16.872 1478.37 0)
(2080.27 917.391 0)
(2084.93 2120.62 0)
(-96.3197 2615.54 0)
(-305.81 2979 0)
(-1190.09 4075.48 0)
(-2078.05 1562.44 0)
(-2332.89 3391.33 0)
(2841.28 855.995 0)
(-2172.01 2034.33 0)
(46.2579 143.76 0)
(389.128 3791.27 0)
(513.986 2297.06 0)
(-46.2887 186.915 0)
(-82.1076 782.97 0)
(55.5482 395.067 0)
(-914.965 2201.2 0)
(-227.549 998.999 0)
(143.809 3814.69 0)
(120.611 443.336 0)
(1928.68 3659.18 0)
(2283.89 1377.21 0)
(1369.65 3783.75 0)
(-28.1155 3450 0)
(-2727.31 780.363 0)
(3.46598 11.7231 0)
(61.5768 1159.93 0)
(-154.905 875.021 0)
(-1154.95 658.167 0)
(-2257.34 2256.01 0)
(-20.688 99.9518 0)
(1967.47 2066.66 0)
(-1876.67 1609.68 0)
(428.104 3560.25 0)
(77.1951 3140.74 0)
(28.9179 337.05 0)
(-2577.89 520.387 0)
(2328.17 3417.03 0)
(2480.66 759.741 0)
(-788.92 2524.9 0)
(52.3596 390.421 0)
(1215.47 2466.04 0)
(-90.7188 394.689 0)
(-78.5968 1444.77 0)
(1243.85 4024.71 0)
(748.879 4058.61 0)
(1694.26 2939.91 0)
(61.1582 531.434 0)
(-1133.87 4088.77 0)
(-1899.75 1437.03 0)
(-380.289 3614.54 0)
(13.7106 3749.29 0)
(60.7809 218.59 0)
(1827.34 748.95 0)
(1031.17 3412.1 0)
(-1279.5 3806.57 0)
(-2427.25 1984.46 0)
(-266.036 3625.57 0)
(-94.5328 808.167 0)
(547 3219.48 0)
(-1083.03 3223.16 0)
(-114.785 2639.4 0)
(1154.45 3262.82 0)
(-45.9827 129.874 0)
(90.5967 3581.71 0)
(575.338 3413.38 0)
(30.7871 643.683 0)
(800.834 3640.35 0)
(68.3325 514.077 0)
(321.734 3497.66 0)
(2517.31 925.96 0)
(691.001 3970.87 0)
(-2092.72 2529.62 0)
(-1963.5 1476.56 0)
(883.927 3217.91 0)
(77.1994 335.635 0)
(-2176.15 684.235 0)
(-67.0718 3552.82 0)
(-696.982 3306.52 0)
(1193.5 3257.2 0)
(371.304 3441.03 0)
(173.288 862.648 0)
(2863.04 1644.75 0)
(867.329 3824.72 0)
(-126.489 499.661 0)
(-34.6691 898.977 0)
(-651.702 3145.11 0)
(-34.4463 144.444 0)
(241.854 3160.97 0)
(-2079.28 2529.85 0)
(103.333 389.093 0)
(-19.5763 3528.45 0)
(40.6558 120.355 0)
(20.9125 3597.02 0)
(-139.372 3194.62 0)
(1169 2298.25 0)
(878.29 2671.36 0)
(479.405 3276.93 0)
(12.2382 1422.06 0)
(-1074.97 2973.03 0)
(-1537.49 1844.32 0)
(-820.689 2353.98 0)
(-2195.33 1629.16 0)
(-1230.88 3893.81 0)
(-1829.38 461.977 0)
(-1296.1 622.244 0)
(2387.96 3446.23 0)
(-127.912 3745.63 0)
(1015.09 4036.8 0)
(-211.476 3555.81 0)
(156.391 573.606 0)
(1055.52 2492.45 0)
(-140.254 2900.62 0)
(-442.091 3539.47 0)
(-1694.94 2817.98 0)
(663.646 187.546 0)
(99.001 855.513 0)
(12.8909 50.657 0)
(2915.37 2991.51 0)
(140.434 529.959 0)
(1221.59 2820.19 0)
(2131.99 3309.68 0)
(-664.33 3542.03 0)
(-41.268 156.813 0)
(-280.397 1031.84 0)
(899.456 3354.31 0)
(-85.1301 1004.06 0)
(1696.05 2570.49 0)
(175.105 2943.18 0)
(1650.17 2799.76 0)
(1132.08 3886.31 0)
(408.039 3644.03 0)
(-79.2345 4042.56 0)
(-1602.62 1924.07 0)
(46.0735 3599.89 0)
(-683.008 3679.04 0)
(-421.23 3141.77 0)
(-88.1395 399.797 0)
(233.737 801.788 0)
(-359.932 3550.96 0)
(1145.14 3860.73 0)
(1453.43 2015.73 0)
(1536.61 3005.55 0)
(928.897 2233.24 0)
(-16.191 61.8939 0)
(-2412.91 1974.18 0)
(296.114 3396.05 0)
(987.002 3255.88 0)
(15.9434 79.32 0)
(-144.686 535.186 0)
(168.908 854.11 0)
(-540.671 3698.52 0)
(-80.5694 1297.77 0)
(396.455 3169.26 0)
(-1048.49 302.66 0)
(712.845 3155.3 0)
(-456.206 2807.23 0)
(-182.595 688.729 0)
(1427.27 3308.78 0)
(-4.95487 285.775 0)
(-167.279 3457.19 0)
(569.267 2912.57 0)
(-3177.85 2325.03 0)
(1134.88 2428.57 0)
(-424.041 1857.22 0)
(-914.728 2195.39 0)
(-66.689 254.225 0)
(-2450.43 3250.94 0)
(-2760.65 728.427 0)
(-1024.4 1746.63 0)
(1321.06 1787 0)
(230.014 3050.03 0)
(-657.344 2739.84 0)
(50.8729 3973.54 0)
(-380.295 3608.92 0)
(144.394 543.777 0)
(-839.523 3987.92 0)
(-2339.25 1251.4 0)
(-2471.63 1791.29 0)
(473.924 2087.58 0)
(920.363 317.778 0)
(-1828.43 1736.37 0)
(-2711.72 1090.94 0)
(36.4887 845.075 0)
(78.2036 266.561 0)
(-1943.76 2727.19 0)
(1048.81 2963.37 0)
(420.881 3218.19 0)
(34.6762 3818.86 0)
(1746.06 2433.64 0)
(1920.91 1469.12 0)
(-238.985 3770.16 0)
(-733.323 3901.49 0)
(-858.372 3735.35 0)
(1927.73 1535.73 0)
(658.793 3445.04 0)
(-142.075 3196.56 0)
(-3533.38 2355.55 0)
(2385.77 1209.54 0)
(-16.2268 177.306 0)
(1519.99 3650.19 0)
(318.822 3419.92 0)
(-109.957 606.327 0)
(1616.57 3414.65 0)
(52.5358 3547.74 0)
(847.801 2174.61 0)
(224.192 917.062 0)
(-169.402 2936.33 0)
(416.368 3937.75 0)
(431.492 3913.45 0)
(377.569 3133.3 0)
(-146.449 3191.82 0)
(1491.87 2136.34 0)
(204.095 1812.95 0)
(-2024.32 485.7 0)
(685.515 2971.78 0)
(70.4876 257.137 0)
(694.859 3876.3 0)
(777.229 3087.95 0)
(-1622.11 3688.43 0)
(929.058 3744.58 0)
(0.307109 30.5731 0)
(10.3509 3744.47 0)
(1280.99 3022.92 0)
(18.151 3750.04 0)
(-10.225 80.4273 0)
(-152.077 846.416 0)
(-2598.19 741.138 0)
(-2590.73 755.787 0)
(58.3045 241.014 0)
(0.0254991 0.263357 0)
(-1205.62 3925.04 0)
(2540.69 2131.93 0)
(52.7408 3023.54 0)
(1539.87 371.169 0)
(-1859.06 3461.16 0)
(11.9995 1168.94 0)
(2475.35 438.229 0)
(1313.15 4054.38 0)
(69.0427 501.47 0)
(-126.182 2895.92 0)
(-2233.7 1306.1 0)
(-17.5368 179.998 0)
(-45.1685 143.222 0)
(1864.84 3460.37 0)
(-517.991 2164.9 0)
(-1173.67 2411.77 0)
(-1044.33 4029.82 0)
(247.749 3741.55 0)
(-171.387 2916.09 0)
(-1628.32 2885.61 0)
(1163.44 3817.74 0)
(-517.59 1879.92 0)
(-269.356 944.36 0)
(250.874 3020.47 0)
(-82 587.358 0)
(-1867.56 2758.85 0)
(2733.19 631.247 0)
(163.033 1169.44 0)
(1046.18 3980.19 0)
(-2565.41 1192.31 0)
(-1967.6 2326.35 0)
(174.697 981.991 0)
(-218.826 817.685 0)
(-300.748 3210.95 0)
(116.254 2371.55 0)
(-552.802 2923.09 0)
(-2792.04 608.884 0)
(-2151.55 2000.83 0)
(-2091.91 452.506 0)
(-2780.19 707.849 0)
(2838.79 969.973 0)
(-59.1325 3757.77 0)
(-149.604 833.126 0)
(-636.2 3049.15 0)
(-474.579 3263.88 0)
(-961.57 3496.99 0)
(100.62 890.842 0)
(-83.6604 793.463 0)
(1552.26 3831.23 0)
(1513.29 3536.25 0)
(-92.9795 746.072 0)
(1294.05 1797.08 0)
(-1526.04 3849.7 0)
(-161.658 594.41 0)
(167.779 3826.69 0)
(-219.851 1053.06 0)
(668.911 3715.06 0)
(-292.995 2597.98 0)
(61.6096 3024.66 0)
(729.977 3483.71 0)
(-1049.53 3283.44 0)
(1390.84 3665.66 0)
(0.0445795 0.0375938 0)
(36.1972 2834.81 0)
(-40.6372 463.9 0)
(-584.112 3275.86 0)
(-579.752 2930.6 0)
(-40.3384 455.748 0)
(-405.412 3333.01 0)
(1226.4 3911.45 0)
(688.55 2962.23 0)
(-2717.2 661.03 0)
(-143.25 530.985 0)
(-2108.3 495.738 0)
(60.8777 494.339 0)
(1876.66 3684.98 0)
(-470.114 3324.72 0)
(316.661 3425.78 0)
(1050.28 3336.91 0)
(-754.545 3112.28 0)
(1114.82 3288.6 0)
(-110.243 3930.07 0)
(79.076 1798.75 0)
(895.984 3827.75 0)
(-3415.35 2232.63 0)
(-486.387 3321.86 0)
(-2721.04 736.857 0)
(553.227 3671.32 0)
(-56.859 1380.38 0)
(59.7795 544.999 0)
(-1915.55 2805.1 0)
(26.8768 332.161 0)
(332.283 1743.63 0)
(-18.4146 96.2655 0)
(-1965.79 2341.41 0)
(1982.05 1639.28 0)
(-325.401 3406.61 0)
(-84.4372 986.841 0)
(460.917 3677.38 0)
(-1076.84 355.645 0)
(651.534 3435.13 0)
(-1511.56 3104.58 0)
(-545.21 4151.18 0)
(-2943.53 2073.51 0)
(127.25 3177.91 0)
(-736.987 3323.42 0)
(2435.9 1825.86 0)
(559.531 2712.54 0)
(54.2818 195.513 0)
(-951.171 2130.72 0)
(-3009.85 2586.68 0)
(-130.737 3188.43 0)
(190.381 1218.66 0)
(231.237 2903.04 0)
(-1622.1 376.49 0)
(-0.335119 6.16299 0)
(-2067.9 1317.39 0)
(1935.82 2524.75 0)
(-1151.17 3944.47 0)
(2585.44 526.239 0)
(79.8135 2947.05 0)
(382.523 4083.15 0)
(713.15 2921.6 0)
(810.412 4041.59 0)
(784.281 2930.12 0)
(-22.984 447.131 0)
(-537.729 2822.21 0)
(224.982 1030.01 0)
(119.744 2388.14 0)
(2154.8 2039.7 0)
(-271.076 3745.59 0)
(255.76 3428.93 0)
(1189.49 182.63 0)
(-1843.21 3676.24 0)
(-265.18 3701.84 0)
(97.4681 332.786 0)
(-2581.73 1677.24 0)
(-1326.34 606.329 0)
(-1196.29 765.218 0)
(-124.252 3182.5 0)
(-72.2566 387.172 0)
(407.305 2063.23 0)
(51.6338 455.393 0)
(504.698 3123.15 0)
(187.546 3804.52 0)
(-958.736 2074.54 0)
(73.2279 1327.4 0)
(-1925.58 2762.17 0)
(-13.5953 591.911 0)
(1596.45 1791.55 0)
(-148.71 3974.62 0)
(780.66 3728.15 0)
(43.3402 3888.03 0)
(1549.26 1043.02 0)
(-632.016 3108.16 0)
(1707.48 2922.2 0)
(1497.47 2009.44 0)
(-2761.47 736.061 0)
(558.528 3677.42 0)
(-2508.07 432.927 0)
(-502.492 2791.6 0)
(87.7008 904.86 0)
(-44.7305 3553.16 0)
(-909.049 4163.74 0)
(-32.7554 3213.25 0)
(-1012.77 3316.94 0)
(554.545 4099.28 0)
(1883.47 974.457 0)
(292.356 3971.03 0)
(-833.908 4022.36 0)
(440.519 3436.04 0)
(0.0111968 0.00656447 0)
(-2738.49 998.043 0)
(-482.38 2807.69 0)
(-2254.86 2083.2 0)
(97.0798 901.629 0)
(54.7784 542.794 0)
(-73.0006 406.945 0)
(382.958 3614.98 0)
(2858.94 712.103 0)
(169.756 3040.3 0)
(-22.4258 721.39 0)
(757.566 3467 0)
(-550.986 3502.57 0)
(-891.266 3732.77 0)
(2206.17 2338.06 0)
(-2202.78 2908.33 0)
(-1242.57 3830.2 0)
(1868.6 2476 0)
(1370.2 4007.03 0)
(1225.96 2418.69 0)
(-1752.08 3490.42 0)
(111.052 436.566 0)
(-1396.74 1613.37 0)
(1582.38 2604.11 0)
(584.666 3342.78 0)
(-1370.83 3119.69 0)
(-291.508 2883.48 0)
(1788.36 2877.51 0)
(-48.3448 185.592 0)
(379.808 3599.7 0)
(1564.27 1949.76 0)
(-1399.05 3119.65 0)
(-47.2229 301.544 0)
(63.8577 289.223 0)
(-1421.54 3803.85 0)
(2478.24 3315.77 0)
(-41.6552 3879.88 0)
(3053.45 2259.1 0)
(1118.24 3914.75 0)
(-2528.73 1724.13 0)
(-2075.74 2093.99 0)
(-9.84596 586.103 0)
(2801.58 898.323 0)
(-44.56 234.598 0)
(2099.01 384.291 0)
(-1548.15 2871.62 0)
(-464.097 4099.67 0)
(2344.78 1970.62 0)
(1669.01 2814.66 0)
(4.20536 6.64982 0)
(-87.9249 327.584 0)
(-1002.87 2000.11 0)
(-1985.37 1633.24 0)
(-2215.66 1807.6 0)
(-2280.57 825.35 0)
(205.019 870.058 0)
(-0.367654 3894.07 0)
(298.54 3511.55 0)
(2186.68 2480.7 0)
(1711.14 1479.52 0)
(1.55372 2.67435 0)
(-654.524 3544.18 0)
(-30.5876 160.615 0)
(857.505 4046.55 0)
(1252.04 3832.28 0)
(1800.92 3631.91 0)
(61.6259 3488.8 0)
(1354.07 3069.78 0)
(1330.75 2984.58 0)
(2716.6 524.746 0)
(80.4939 897.438 0)
(-82.6006 319.826 0)
(-1222.76 306.38 0)
(-2127.28 3142.9 0)
(-67.5417 3565.73 0)
(201.981 3001.96 0)
(-39.6453 4081.88 0)
(-965.393 2275.99 0)
(2854.82 951.273 0)
(-1827.52 1591.09 0)
(2183.49 2347.11 0)
(1101.92 2463.19 0)
(-19.4844 411.074 0)
(724.42 2529.35 0)
(228.513 3424.38 0)
(-1063.26 4114.56 0)
(-674.307 2564.29 0)
(-2504.39 1280.2 0)
(2103.35 1546.76 0)
(974.429 3337.91 0)
(1287.96 2803.31 0)
(-285.345 2585.13 0)
(781.038 3156.24 0)
(1068.95 2073.32 0)
(1377.06 3081.6 0)
(2006.9 3441.21 0)
(218.921 2484.91 0)
(-201.24 745.799 0)
(-269.952 1131.4 0)
(204.901 787.931 0)
(2211.52 3508.39 0)
(47.0989 452.754 0)
(38.5871 1280.98 0)
(1650.77 1882.3 0)
(-32.4583 3436.59 0)
(1363.6 3793.47 0)
(-2399.8 1058.22 0)
(2568.49 3014.41 0)
(-116.481 419.955 0)
(1080.72 3191.59 0)
(913.19 4163.06 0)
(-865.233 3380.99 0)
(2307.45 1974.27 0)
(618.569 3352.83 0)
(63.0565 500.966 0)
(-990.651 3082.13 0)
(1673 2157.21 0)
(-43.0111 237.455 0)
(395.251 2789.33 0)
(236.47 2540.65 0)