# rho  FACE_DATA 23640
#  x  y  z  rho
-0.00296834 0.0159323 0 0.00205114
0.000794309 0.0100339 0 0.00249699
0.00690979 0.0130745 0 4.81815e-005
0.000158008 0.0018211 0 0.594396
-0.000662165 0.0113619 0 0.00367107
-0.00203768 0.00587959 0 0.0165021
-0.000220137 0.00748479 0 0.0034189
0.00214531 0.0125841 0 0.00775798
-0.00164167 0.00702341 0 0.0101852
0.00020958 0.00306993 0 0.0175686
4.59799e-005 0.00273939 0 0.567888
0.00075606 0.00524313 0 0.00620669
0.00107075 0.0257944 0 0.00295152
-0.000458708 0.0115994 0 0.00275775
-0.000900467 0.00350322 0 0.0232422
-0.00222355 0.00655891 0 0.0148999
0.00442703 0.0182294 0 0.000815816
7.09705e-005 0.00299924 0 0.420703
-2.45517e-005 0.00292714 0 0.504193
-0.000543852 0.00394831 0 0.0134621
7.98376e-005 0.00283498 0 0.551731
0.00510868 0.0124654 0 3.46017e-005
7.37866e-005 0.00284217 0 0.548862
-0.000122136 0.00287943 0 0.546033
0.00117211 0.0120328 0 0.00579102
0.000340217 0.00636002 0 0.00478054
-1.62375e-005 0.00331413 0 0.0789079
0.000288499 0.00391811 0 0.0181111
0.00604323 0.0215883 0 0.000447031
0.0015748 0.0199438 0 0.00285627
0.000642306 0.0286533 0 0.00228953
-0.000788091 0.000235815 0 0.67138
8.45076e-005 0.00283429 0 0.55248
-0.000766033 0.00453527 0 0.00830593
-0.000556446 0.00360452 0 0.0131777
-0.000694613 0.00330261 0 0.0218511
0.00425461 0.0181246 0 0.000908902
0.00563158 0.0299784 0 0.00124094
0.00374311 0.0125452 0 0.000161445
-0.000168184 0.00269727 0 0.581052
0.00100487 0.00483203 0 0.00642
-0.00170325 0.00704586 0 0.0109373
-0.00047461 0.0123053 0 0.00371523
-0.00401905 0.0129379 0 0.000139776
0.000128446 0.00148328 0 0.587951
0.000108141 0.00315803 0 0.0992314
0.00299545 0.0176096 0 0.00172761
0.00122698 0.00708374 0 0.0037696
0.000214903 0.00307399 0 0.0176365
0.00225142 0.0126586 0 0.00774436
0.000204708 0.00068009 0 0.605409
4.25297e-005 0.00299727 0 0.428459
-0.000477288 0.00315875 0 0.019974
-0.00378992 0.02149 0 0.000884428
0.000139812 0.00181138 0 0.594029
0.000208917 0.00302796 0 0.0117356
-0.00160791 0.0049468 0 0.0200222
0.000941143 0.00995448 0 0.00323019
8.9442e-006 0.010956 0 0.00184981
-0.000434056 0.00133506 0 0.590256
0.000566946 0.0289715 0 0.00220006
-7.40414e-005 0.003214 0 0.103523
-0.000145493 0.00239699 0 0.594127
3.42483e-005 0.00298986 0 0.44193
0.000575544 0.00987125 0 0.00215567
3.71363e-005 0.00299095 0 0.439715
-0.00247102 0.00772987 0 0.0120821
0.00096928 0.0118325 0 0.00536302
-9.22697e-005 0.00299969 0 0.402277
-0.000570617 0.0122505 0 0.00421044
-0.000211411 0.00254812 0 0.591929
-0.000765289 0.00457715 0 0.00805726
8.13068e-005 0.00294139 0 0.508405
-0.00437678 0.0203082 0 0.000786435
0.00226862 0.00661101 0 0.0142861
-0.000832194 0.000220534 0 0.664644
-0.000164868 0.00301134 0 0.0117449
0.0012393 0.0259768 0 0.00287508
-2.48279e-005 0.00292318 0 0.507449
0.000116572 0.00245177 0 0.591581
9.77655e-005 0.00313112 0 0.115864
0.000279024 0.00328636 0 0.029305
-5.75605e-005 0.0116355 0 0.00174689
-7.47936e-005 0.0117342 0 0.00175003
0.000518168 0.00993111 0 0.00213219
-0.000154608 0.0030256 0 0.015736
4.53443e-005 0.00299839 0 0.426737
-0.000161071 0.0027724 0 0.57157
0.000104836 0.00293916 0 0.517324
-0.00100104 0.00361077 0 0.0240585
-0.000510005 0.00921774 0 0.00227781
0.00100295 0.0100141 0 0.00412658
-0.000646084 0.00336418 0 0.0163372
6.96906e-005 0.00293287 0 0.509167
-1.67264e-005 0.00300289 0 0.42147
0.000173509 0.0227352 0 0.00489599
3.17037e-005 0.00298455 0 0.449202
0.000312244 0.00306502 0 0.0157038
-0.00212604 0.00906512 0 0.0104464
-0.00049218 0.00322389 0 0.0159366
0.000341345 0.00323843 0 0.0194624
-0.00385942 0.0216496 0 0.000893934
-0.000125834 0.0028813 0 0.545836
0.00524627 0.0255212 0 0.000563545
0.000713781 0.0036837 0 0.00996093
0.00601727 0.0299149 0 0.00115898
-0.000344095 0.00203632 0 0.600132
-0.0047341 0.0239481 0 0.000653748
-0.000460773 0.00539436 0 0.0063375
-0.00196148 0.00905338 0 0.00989348
0.00143807 0.0303782 0 0.00198094
7.94637e-005 0.00293894 0 0.509309
0.00013473 0.00481908 0 0.0092883
0.00105264 0.00484794 0 0.00632262
0.000112877 0.0030262 0 0.0561988
-0.00781161 0.0282885 0 0.000325377
-0.000846622 0.00344471 0 0.0235002
-0.00206201 0.0306837 0 0.00183986
-0.00313594 0.0160362 0 0.00183163
0.00144289 0.0198776 0 0.00341125
-0.000135136 0.00286502 0 0.551478
-0.000205101 0.000950881 0 0.581859
0.000372212 0.00308853 0 0.0170558
0.000370404 0.000795868 0 0.585091
0.000201681 0.00347815 0 0.035965
-0.000147808 0.00278598 0 0.56883
0.000218103 0.000637733 0 0.619712
0.000195722 0.00313377 0 0.0346798
-0.00203813 0.00594128 0 0.0165387
0.00112067 0.00510142 0 0.00567238
5.16573e-005 0.00373385 0 0.0265849
0.000381501 0.00336875 0 0.0198434
0.000860715 0.0258401 0 0.00310991
-0.000116556 0.00339842 0 0.0504991
-0.00513668 0.0257477 0 0.000589957
-0.000162894 0.00277847 0 0.571587
8.27341e-005 0.00277738 0 0.563974
0.0010674 0.0118759 0 0.00559395
-4.09992e-005 0.00275121 0 0.565856
3.29665e-005 0.00297369 0 0.463518
-0.00204547 0.0090065 0 0.0103767
-0.00160474 0.0048986 0 0.0203079
8.25825e-005 0.00294819 0 0.503402
4.00473e-005 0.00273627 0 0.568132
-9.41642e-005 0.00295571 0 0.502475
0.00150619 0.00997327 0 0.00734749
8.22134e-005 0.00268838 0 0.575989
-0.000160791 0.00267895 0 0.582001
-0.000596112 0.00909085 0 0.00232456
-9.31423e-005 0.00299701 0 0.430379
0.00235681 0.0126226 0 0.00788933
0.00203765 0.00557212 0 0.0165941
-0.000165794 0.0115731 0 0.00181805
6.0159e-005 0.0021996 0 0.595447
0.000371981 0.00362464 0 0.0205685
-0.00733688 0.029685 0 0.000608064
-0.000180414 0.00743151 0 0.00347271
-0.000357207 0.004885 0 0.00852597
0.00253943 0.00813968 0 0.0116058
-1.29377e-005 0.00332967 0 0.0776495
-0.0010235 0.00361199 0 0.0240551
-0.000285329 0.0030748 0 0.0158192
-0.000681311 0.00329291 0 0.0217334
-0.00260727 0.00895038 0 0.0103835
0.00788717 0.0276195 0 0.00031327
0.0089704 0.0287411 0 0.000266425
-0.000270534 0.00232157 0 0.598713
-0.00014416 0.00312601 0 0.0687598
-0.000337662 0.00201762 0 0.599881
0.0003962 0.00337513 0 0.0195148
0.00121317 0.00701782 0 0.0037843
0.000116206 0.00302915 0 0.0531326
0.00225197 0.00666935 0 0.0143288
-0.000507665 0.00548922 0 0.0059797
-0.000231863 0.00226746 0 0.598024
0.000244361 0.00226851 0 0.598386
0.00111028 0.00505498 0 0.00577112
0.000121223 0.00304184 0 0.057765
0.00012049 0.00243938 0 0.592234
-0.0013386 0.0186068 0 0.00332297
0.000102064 0.00149733 0 0.588295
0.000147362 0.00301363 0 0.0100134
0.00106981 0.0119939 0 0.0055968
-0.000365953 0.00411169 0 0.0146593
0.00557444 0.020358 0 0.000512364
4.86089e-005 0.00307386 0 0.249098
-0.000177413 0.0035472 0 0.03406
-0.000632994 0.00339325 0 0.012767
0.000487307 0.00130985 0 0.590948
-0.000349424 0.00402777 0 0.0161145
-0.00177251 0.00629586 0 0.014421
-7.92525e-005 0.00273084 0 0.570826
0.000241714 0.00100077 0 0.582107
-0.000154516 0.0114773 0 0.00181209
0.00502442 0.0222916 0 0.000639561
-0.000166546 0.00272686 0 0.578192
0.000707598 0.00365891 0 0.0100248
-0.00157418 0.0046046 0 0.0209325
0.000122725 0.00301099 0 0.0139312
0.000172305 0.00324558 0 0.0541207
7.46185e-006 0.00286175 0 0.536904
0.00533293 0.0140838 0 8.56618e-005
0.00520504 0.0284215 0 0.00131121
-0.00170266 0.00713636 0 0.0107817
4.38765e-005 0.00290514 0 0.51946
0.00035679 0.0099507 0 0.00206734
0.000120447 0.00300871 0 0.0137895
7.85992e-005 0.00284146 0 0.54994
0.000146556 0.00306157 0 0.0396242
-0.000265484 0.00230758 0 0.598806
-0.000558184 0.0114136 0 0.00299196
0.000873988 0.011905 0 0.00521826
0.00195145 0.0157285 0 0.0041739
0.000415959 0.00988952 0 0.00209616
0.00204861 0.00551694 0 0.0169323
0.00159497 0.00893937 0 0.00827454
0.00125366 0.00690066 0 0.00401478
-0.000537482 0.00397822 0 0.0132421
-0.00245206 0.00890865 0 0.0109884
-0.00591638 0.015069 0 0.000113519
0.00182541 0.0157696 0 0.00449641
-6.39179e-005 0.00274368 0 0.567715
1.24162e-005 0.00286011 0 0.537935
0.000785526 0.00520879 0 0.00627884
0.000119132 0.00288179 0 0.544713
0.000107617 0.00492998 0 0.0088791
-0.000398708 0.00617064 0 0.00491208
-0.00031795 0.000861625 0 0.583575
-0.0054742 0.0145195 0 0.000121503
-0.00050603 0.0093045 0 0.00228087
-0.00281713 0.0160093 0 0.00217515
-0.00521587 0.0225645 0 0.000582963
0.000631138 0.00410172 0 0.0107552
0.00077675 0.0118594 0 0.00503781
-0.000339893 0.00491785 0 0.00838826
0.000278502 0.0033019 0 0.0292403
-0.000206291 0.0025551 0 0.591352
0.0015782 0.00885327 0 0.00819277
-0.000601058 0.00917374 0 0.00232413
0.000107852 0.00308374 0 0.109888
0.000329157 0.00324408 0 0.0212649
-0.000107456 0.0030138 0 0.0535862
0.000995869 0.00478803 0 0.00639418
-0.00176263 0.00715431 0 0.0111825
0.000133123 0.00190024 0 0.595099
0.00428452 0.0222831 0 0.000777756
0.00249322 0.0134845 0 0.00554391
0.000209201 0.00303326 0 0.0128699
1.124e-005 0.00241342 0 0.591575
-0.000138897 0.00282521 0 0.561903
-0.000422518 0.00130967 0 0.589738
0.000897928 0.00602889 0 0.00477271
0.00296246 0.0177704 0 0.00173892
-0.000240922 0.0022558 0 0.598206
0.000161456 0.0106342 0 0.001904
-0.000169117 0.00269067 0 0.581509
-0.00600599 0.0132277 0 3.37775e-005
-0.00498542 0.0226529 0 0.000635396
0.00035646 0.00189436 0 0.598275
0.000360867 0.00193124 0 0.598778
0.000188008 0.00159518 0 0.59092
0.00315697 0.0294361 0 0.0019459
0.000380728 0.00331446 0 0.0188757
-0.000407732 0.00541329 0 0.00668793
0.00599218 0.0187772 0 0.000398954
-0.000475668 0.0124289 0 0.00394239
9.243e-005 0.00339173 0 0.0564664
-0.0022067 0.00902531 0 0.010838
0.000138287 0.010546 0 0.00190346
-4.59787e-005 0.00300592 0 0.41067
0.000475334 0.00325723 0 0.0125644
0.0081269 0.0233608 0 0.000243508
-0.000136448 0.00286953 0 0.551586
0.000465099 0.00132931 0 0.591148
0.000196949 0.00312437 0 0.0351953
-0.000725979 0.00459524 0 0.00840508
0.00566025 0.0201173 0 0.000529678
-0.000237093 0.000937504 0 0.58238
-7.15727e-006 0.00298867 0 0.442977
-0.000556128 0.00552312 0 0.00584404
-0.000151452 0.00278159 0 0.570151
0.00604583 0.0167381 0 0.000239072
5.44524e-005 0.00307484 0 0.241184
3.5211e-005 0.00270778 0 0.571956
-0.00210731 0.0068781 0 0.0147713
8.91266e-005 0.00319599 0 0.103615
-0.00242079 0.00974735 0 0.0101664
0.00135885 0.00413507 0 0.0230149
-0.00108228 0.00797081 0 0.00303715
3.29303e-005 0.00271504 0 0.570635
-0.000508078 0.0208168 0 0.00623367
-0.00472826 0.0198065 0 0.000702831
0.00152826 0.0090827 0 0.00785272
-0.00252462 0.00897287 0 0.010794
-4.09377e-005 0.0027578 0 0.564692
-0.00186927 0.0116808 0 0.00771343
0.00108447 0.00518193 0 0.00575883
-0.00419392 0.0202211 0 0.000846539
0.000296615 0.00594885 0 0.00546275
0.00365557 0.0156923 0 0.00122931
-0.000138643 0.00311989 0 0.0720106
3.44704e-005 0.00298593 0 0.44736
-0.000249911 0.000891772 0 0.582205
0.00110337 0.0099601 0 0.00568311
8.04689e-005 0.00279643 0 0.559796
0.00779157 0.0249956 0 0.000295468
0.000351464 0.00337107 0 0.0221729
-0.00012879 0.00323538 0 0.0713734
0.000155895 0.00168996 0 0.592288
8.56943e-005 0.00294739 0 0.505183
0.0053023 0.0238774 0 0.000559007
0.000238423 0.00318026 0 0.0305473
0.000230406 0.00226533 0 0.598042
-5.15866e-005 0.00292996 0 0.506666
2.57476e-005 0.00286927 0 0.534864
0.000105066 0.00340141 0 0.0530586
-0.0006343 0.00341198 0 0.0122255
-0.00683177 0.0130924 0 3.77459e-005
-1.54609e-005 0.00299907 0 0.427671
-0.00215958 0.00656839 0 0.0153386
0.00301179 0.0141363 0 0.0022865
-0.000723924 0.00463742 0 0.00834256
-0.000555458 0.00358088 0 0.0135093
0.000287933 0.00394954 0 0.017368
-0.00525881 0.0259389 0 0.00058188
-0.000235386 0.00314485 0 0.02664
-0.000664883 0.00104525 0 0.59299
0.00182857 0.0107598 0 0.00777685
0.00289308 0.0133881 0 0.00328794
0.000556851 0.000459359 0 0.629316
-6.31462e-005 0.00306344 0 0.242243
0.00204396 0.0126442 0 0.00754884
-0.000369072 0.00408052 0 0.0148845
-0.00018247 0.00378321 0 0.022813
0.000579156 0.0162179 0 0.00655079
0.00117061 0.0100074 0 0.00594476
0.000129771 0.00301154 0 0.0125981
0.00050022 0.00329429 0 0.012098
-0.00194273 0.0117557 0 0.0078798
0.000295066 0.00600891 0 0.0054369
-0.000154748 0.0030213 0 0.0143973
8.51353e-005 0.00297491 0 0.478939
0.000370749 0.00364798 0 0.0200835
0.00032381 0.000892659 0 0.583813
-0.000114683 0.00273658 0 0.572534
7.10543e-005 0.0030026 0 0.406371
-9.6647e-005 0.00324264 0 0.0839809
0.000733896 0.00537107 0 0.00603427
0.000155197 0.00494735 0 0.00842066
0.000610019 0.00412319 0 0.0109015
0.000353717 0.00194986 0 0.599016
-0.000244432 0.00314026 0 0.0238812
-0.00502653 0.0232658 0 0.000619115
-0.00178789 0.0309983 0 0.00182746
-0.000579723 0.00361754 0 0.013307
0.00813841 0.0273314 0 0.000305506
-0.002496 0.0131044 0 0.00665566
-0.00431729 0.0290645 0 0.0016101
-0.000157683 0.00240005 0 0.594396
-6.09633e-005 0.00273787 0 0.569057
-0.000172602 0.00356894 0 0.0327346
5.95493e-005 0.00280503 0 0.556514
3.59382e-005 0.00297531 0 0.46177
0.0038221 0.0156522 0 0.00109036
0.00151814 0.00899556 0 0.0078279
0.00891208 0.0209237 0 0.000152157
0.00932881 0.0247628 0 0.000190511
0.000401147 0.00319889 0 0.0137687
-1.37134e-005 0.00292236 0 0.507178
-0.00149883 0.0199029 0 0.0032894
-0.000151382 0.00307642 0 0.0435098
-9.99299e-005 0.00297786 0 0.481784
0.00528439 0.0241343 0 0.000557458
2.61097e-005 0.00286432 0 0.536785
0.000206875 0.00349712 0 0.0348251
-0.00509797 0.0234717 0 0.000615363
-0.000597722 0.000953511 0 0.592086
-0.00793898 0.0155863 0 7.25821e-005
0.00183935 0.0106624 0 0.00785679
7.52069e-005 0.00339368 0 0.057941
-7.77056e-005 0.00294222 0 0.505109
-9.8985e-005 0.00297992 0 0.477734
0.00161823 0.00911669 0 0.00818481
8.21842e-005 0.00297527 0 0.476819
-0.00188133 0.00900925 0 0.00952445
-0.00617827 0.0275965 0 0.000576213
-0.000490092 0.00321051 0 0.0172204
0.00945115 0.0288751 0 0.000236263
-0.00016434 0.00272067 0 0.578882
-0.00797941 0.0222445 0 0.00024841
-4.01564e-005 0.00301654 0 0.391591
-0.00180498 0.00506765 0 0.0185017
-0.000161305 0.00301261 0 0.0111887
-0.000482063 0.00316965 0 0.0200471
-0.000942791 0.00378901 0 0.0135781
-0.000134053 0.00282435 0 0.561644
0.000242746 0.000963685 0 0.582079
0.00525461 0.0274919 0 0.00118713
0.00306352 0.0179257 0 0.00167157
-0.000120066 0.00324295 0 0.0733394
-0.00319507 0.0125029 0 0.00132675
-0.000290892 0.00233844 0 0.598881
0.00159844 0.00482417 0 0.0209874
0.00787978 0.0236538 0 0.000269794
0.00145057 0.0259009 0 0.0029496
-0.000336257 0.00619409 0 0.00477068
-0.000333917 0.00172186 0 0.595424
0.00577509 0.0216659 0 0.000475134
0.000667048 0.00332313 0 0.0220289
0.00248969 0.00807562 0 0.0117134
-0.00160944 0.00467215 0 0.0203604
1.98969e-005 0.00242157 0 0.591526
0.000286635 0.0021356 0 0.599108
-0.00161117 0.00618199 0 0.0126332
7.54635e-005 0.00268391 0 0.576285
0.00101663 0.00497361 0 0.00615084
9.78423e-005 0.00320089 0 0.0974788
-0.000282098 0.0245537 0 0.00371824
0.00160534 0.0053807 0 0.0167971
0.000645555 0.00426047 0 0.0104836
0.000344665 0.00191282 0 0.598454
-4.37224e-005 0.0030135 0 0.395863
0.000410526 0.00592784 0 0.00530625
-0.00161438 0.00462874 0 0.0203209
0.000197339 0.00307463 0 0.0202032
-0.00787948 0.0250527 0 0.000300248
0.000365567 0.000836364 0 0.584549
0.000428529 0.0031113 0 0.0177713
6.29689e-005 0.00280138 0 0.558024
-0.00260928 0.0115127 0 0.00862416
0.00511854 0.0182191 0 0.000555517
-0.000191506 0.0013612 0 0.586516
0.000255298 0.00234631 0 0.597743
7.80872e-005 0.00285378 0 0.546869
-6.93966e-006 0.00361778 0 0.0351645
-0.000112834 0.00273034 0 0.573415
-0.000151306 0.00308356 0 0.0461397
0.000794921 0.00339323 0 0.0239353
0.000120559 0.00308016 0 0.0881882
-0.00060963 0.000994212 0 0.591953
-0.000187211 0.00375918 0 0.0238812
-0.000179749 0.00239602 0 0.594992
0.000583853 0.00320912 0 0.0217284
-0.000220391 0.00307379 0 0.0173638
-3.20721e-005 0.00313154 0 0.189033
-0.00240166 0.00829286 0 0.0119351
-0.000107553 0.0032363 0 0.0805821
0.000485775 0.00324734 0 0.0128973
-1.6528e-005 0.00283252 0 0.546369
0.000388916 0.00319175 0 0.0138791
-0.000191501 0.000101552 0 0.967234
-0.00244196 0.00780076 0 0.0122392
-0.000237142 0.00223825 0 0.598315
-0.00179252 0.00511195 0 0.0186249
7.86645e-005 0.00300926 0 0.371808
-0.00578012 0.0268724 0 0.00056595
-0.00101007 0.00801211 0 0.00292273
0.000363332 0.00337974 0 0.0221976
0.000391279 0.00186159 0 0.598539
0.000433244 0.00317308 0 0.0152792
0.00161612 0.00543442 0 0.0164864
-0.00207993 0.00693738 0 0.0145935
0.000483914 0.00474879 0 0.00883489
0.000802557 6.40842e-005 0 0.74943
0.00066144 0.00330597 0 0.0225854
0.00141767 0.0197289 0 0.00336114
-0.000651775 0.00329699 0 0.021746
0.000282152 0.00304241 0 0.0122165
-0.000357054 0.00319624 0 0.0156621
-0.00178284 0.00623412 0 0.0147604
3.8992e-005 0.00380209 0 0.0252086
-0.00100109 0.0210667 0 0.00521718
0.000165033 0.00158259 0 0.590438
0.00864187 0.0174253 0 8.41642e-005
0.00315453 0.0128329 0 0.00206837
-8.64597e-005 0.00318341 0 0.107684
-0.000259494 0.0126492 0 0.00318932
0.000466396 0.000355167 0 0.728818
0.000246728 0.00318708 0 0.0300699
-0.000724122 0.000493878 0 0.617317
-0.00236534 0.0089472 0 0.0109919
-0.00585899 0.0184819 0 0.000422645
-0.000109395 0.00425783 0 0.0143436
-0.000225082 0.00307869 0 0.0174542
0.00116126 0.00383867 0 0.0241797
0.000146244 0.00305529 0 0.0357119
0.000106639 0.00285591 0 0.550421
0.00516349 0.0142403 0 0.000115396
-0.000547118 0.0281975 0 0.00242656
-0.00314055 0.0188201 0 0.00137011
6.39205e-005 0.0034062 0 0.0542872
0.000746714 0.00049437 0 0.615095
0.00226648 0.0258744 0 0.00264862
-0.000137355 0.00283875 0 0.558791
0.00173233 0.0108179 0 0.00751387
-0.000334456 0.00625618 0 0.00476063
-0.000652252 0.00338145 0 0.0152517
-6.89277e-005 0.00306466 0 0.223821
0.000126795 0.00304178 0 0.045151
0.00478399 0.0277755 0 0.00146899
0.000516287 0.0229306 0 0.0045352
5.89116e-005 0.00254342 0 0.586357
-0.00795861 0.0246948 0 0.000296817
0.00133689 0.00999394 0 0.00673434
-0.000118825 0.0220921 0 0.00549533
6.34909e-005 0.0107046 0 0.00188304
-0.000946741 0.00381309 0 0.0126438
0.00581241 0.0241952 0 0.000494973
-0.00487736 0.01991 0 0.000678012
0.00170829 0.0256098 0 0.00294989
9.98067e-005 0.00316224 0 0.105586
0.00308063 0.0142797 0 0.00220905
-0.000279242 0.00307977 0 0.015735
-0.000183934 0.00303725 0 0.0158794
7.83288e-005 0.00286324 0 0.542611
-0.000440884 0.00514493 0 0.00717685
0.000455558 0.00477565 0 0.00869039
0.00520625 0.0221693 0 0.000600736
-0.00179507 0.00722781 0 0.0116781
5.54873e-005 0.00266826 0 0.577076
-0.00157971 0.00456195 0 0.0210596
4.18607e-005 0.00302762 0 0.364867
-0.000194972 5.19224e-005 0 0.974576
-0.000846289 0.00342394 0 0.0232857
-0.00105965 0.00823661 0 0.00295615
0.000163413 0.00479131 0 0.00937915
-8.2874e-005 0.00288534 0 0.536148
0.00157378 0.00552232 0 0.0146822
-7.66839e-005 0.00293931 0 0.507279
0.000101978 0.0109948 0 0.00181962
-0.000363872 0.00601296 0 0.00523899
0.000117978 0.00287815 0 0.546149
0.000219153 0.00318835 0 0.036086
-0.00163196 0.00449872 0 0.0203218
-0.000221409 0.00303399 0 0.0137225
-0.000370966 0.0244074 0 0.00377631
-0.000466554 0.00315829 0 0.0197936
0.000396164 0.00331941 0 0.0176017
-0.00482666 0.0238063 0 0.000669222
0.00133411 0.00522841 0 0.00711421
-0.00267568 0.00982141 0 0.00946936
-0.000480207 0.0219659 0 0.00538373
0.00177473 0.0106071 0 0.00776683
0.000428512 0.00597987 0 0.00529791
0.00330832 0.0202369 0 0.00116021
-0.00036699 0.012473 0 0.00336994
-0.000901486 0.00347959 0 0.0229681
-9.70158e-005 0.00294708 0 0.509598
-0.00110466 0.0144253 0 0.00545421
-0.00107199 0.0143087 0 0.00548232
0.000113095 0.0030798 0 0.101961
0.000776547 0.0117402 0 0.00497318
-0.000196596 0.00302496 0 0.0126002
-0.00581483 0.0148124 0 0.000111114
0.000125326 0.00308478 0 0.0837737
-0.00172589 0.0230235 0 0.00346769
-0.00123798 0.0114294 0 0.00590441
-0.000106038 0.00301072 0 0.0512963
7.68012e-005 0.00277918 0 0.563201
-0.000218387 0.00226751 0 0.59794
0.00288382 0.0120736 0 0.0074001
0.000136685 0.00272066 0 0.576379
0.00126396 0.00994364 0 0.00665912
0.000169734 0.00323168 0 0.055257
3.33298e-005 0.00296283 0 0.476047
7.38909e-005 0.00285244 0 0.546638
0.00226662 0.00684142 0 0.0142247
-4.80444e-005 0.00288948 0 0.528398
0.000117291 0.00304527 0 0.0737105
0.00044057 0.00316393 0 0.0171932
0.00025781 0.000139806 0 0.940109
-0.000553437 0.0115383 0 0.00298468
0.00174054 0.0109254 0 0.00745316
-0.00657824 0.0304887 0 0.00103275
-0.00287878 0.0309438 0 0.00175579
-1.74214e-005 0.00292383 0 0.506332
0.000417861 0.00311152 0 0.0188321
-0.000158816 0.00302837 0 0.0157991
0.000540608 0.00339996 0 0.0123125
0.00322243 0.0179545 0 0.00144995
-0.000159371 0.0013528 0 0.585987
0.000126077 0.0159893 0 0.00878375
-0.00432652 0.0294311 0 0.00161665
0.0015673 0.00546801 0 0.0149141
-5.0904e-005 0.00292621 0 0.508943
-0.000106737 0.00293051 0 0.521901
0.00275932 0.0110589 0 0.0086294
0.000556951 0.00340784 0 0.0118601
0.000399007 0.0063813 0 0.0045758
-4.55764e-005 0.00288684 0 0.52943
5.78688e-005 0.00240298 0 0.592015
-0.00135948 0.0128543 0 0.00601416
0.00105587 0.00489705 0 0.00624891
-0.00180772 0.00736401 0 0.0114193
8.62884e-005 0.0107917 0 0.0018856
-1.73838e-005 0.00299616 0 0.433041
-0.000559779 0.00402893 0 0.0124194
-0.000129894 0.00339006 0 0.0499866
-0.00108645 0.0209701 0 0.00520181
-0.000355289 0.00318516 0 0.0153614
6.75287e-005 0.00268766 0 0.575313
-1.6399e-005 0.00282695 0 0.548238
0.000375645 0.00184967 0 0.598172
0.000226595 0.00318087 0 0.0328824
-0.00157723 0.0197887 0 0.00300791
0.000153682 0.00302297 0 0.0132732
-0.000983791 0.00376429 0 0.0191807
0.00320404 0.0139037 0 0.00189569
-0.000399729 0.0051532 0 0.0075241
-8.43671e-005 0.0028893 0 0.535098
0.00153091 0.0204307 0 0.00353217
0.0023948 0.0125217 0 0.00788429
0.000662239 0.00525468 0 0.00631041
-0.00103759 0.0179087 0 0.00435045
-0.00194218 0.00558429 0 0.0173169
-0.000960129 0.00376594 0 0.0174282
-0.000309837 0.00306474 0 0.0155547
0.00162461 0.00920594 0 0.00822453
0.00346181 0.0203111 0 0.00109975
0.000412094 0.000782235 0 0.586343
4.10836e-005 0.00290739 0 0.518429
0.00107752 0.00513333 0 0.00582719
-0.00139776 0.00696247 0 0.00541379
5.83714e-005 0.0023895 0 0.592483
0.000501828 0.0119171 0 0.00325885
-2.97555e-005 0.00300349 0 0.419254
0.00113092 0.00612109 0 0.00412973
3.11664e-005 0.00285722 0 0.539674
-0.000756348 0.0223669 0 0.00487636
0.000606022 0.00322532 0 0.0220621
0.00858419 0.0213223 0 0.000180702
0.00228739 0.00873166 0 0.0109213
-0.00330691 0.0124678 0 0.000652904
-0.00135503 0.018735 0 0.00329462
-0.00782909 0.0173425 0 0.000123754
0.000179373 0.00168518 0 0.592386
0.000181353 0.0228576 0 0.00483277
0.00116853 0.00608209 0 0.00421836
0.00534216 0.0272787 0 0.00108873
0.000808836 0.00340365 0 0.0240054
-0.00176706 0.00728799 0 0.0114548
0.000366125 0.00308127 0 0.0162352
0.000142062 0.00271694 0 0.57707
0.000456136 0.0264018 0 0.00293695
0.000149779 0.00301624 0 0.0101923
8.09965e-005 0.015903 0 0.00880578
3.07264e-005 0.00286231 0 0.537806
-0.000148146 0.00339011 0 0.0481055
-0.0064378 0.0277565 0 0.000514697
0.00072806 0.00532362 0 0.00606472
-0.00065633 0.00335203 0 0.0190117
-0.000360464 0.000878987 0 0.584455
-9.67537e-005 0.00295742 0 0.50207
-0.000484113 0.00948683 0 0.00220892
-0.000565445 0.00399845 0 0.0129011
0.000588623 0.00111811 0 0.591733
0.000130395 0.00304539 0 0.0455313
0.000107754 0.00285149 0 0.551703
0.00165731 0.0250536 0 0.00313589
0.00285988 0.0119675 0 0.00771513
-9.54028e-005 0.00428588 0 0.0140522
-0.000124414 0.00317156 0 0.0830369
-0.00814733 0.0285856 0 0.000317431
-0.000216377 0.0031251 0 0.0280987
0.00549751 0.012219 0 3.4887e-005
-0.00550796 0.012201 0 2.23147e-005
0.00287309 0.0132504 0 0.00332748
0.000396043 0.00090361 0 0.584959
-9.96587e-005 0.00294535 0 0.512087
-0.00215947 0.00674928 0 0.0145891
-0.000289559 0.000893856 0 0.58274
0.00184728 0.00894591 0 0.00934232
-0.000404895 0.00611192 0 0.00493045
-0.00085135 0.00350535 0 0.0229556
3.34633e-006 0.00298331 0 0.449938
0.00378526 0.0199019 0 0.00101053
-0.000528492 0.024373 0 0.0039346
-0.000842118 0.0116133 0 0.00493745
-0.00298148 0.0188909 0 0.00147383
5.9556e-005 0.0025331 0 0.586942
-0.000468824 0.00121303 0 0.5896
9.1581e-005 0.0171817 0 0.00940311
-0.00127026 0.0113439 0 0.00598816
0.00402234 0.0130084 0 0.000148836
-0.000363163 0.00496329 0 0.00797519
-0.00609252 0.0268039 0 0.000468139
0.000283831 0.00172705 0 0.594611
-0.000884834 0.00452052 0 0.00745983
0.000104251 0.00312707 0 0.109527
0.00028648 0.000908897 0 0.582883
0.00627587 0.0218045 0 0.000441042
0.000138189 0.00301242 0 0.0117794
-8.45766e-005 0.00300744 0 0.360744
-0.000367296 0.0115469 0 0.0021698
4.43738e-005 0.00303088 0 0.353943
0.00481648 0.0179238 0 0.000637859
0.00149749 0.00436073 0 0.022171
0.00128386 0.00510424 0 0.00620241
-0.000137123 0.00279496 0 0.567103
0.00010392 0.0048879 0 0.00888368
-0.00091848 7.16259e-005 0 0.692879
3.54985e-006 0.00298714 0 0.444798
0.000749152 0.00426831 0 0.00929751
-0.000130195 0.00286367 0 0.551808
0.00513916 0.0264131 0 0.000743539
-0.00145383 0.00693267 0 0.00693243
-0.000170314 0.00271408 0 0.579865
0.000708754 0.00344963 0 0.0126273
0.000173403 0.0026398 0 0.585369
0.00102924 0.00397184 0 0.0110847
7.04719e-005 0.00292897 0 0.512383
-0.000154347 0.00277069 0 0.572151
0.000152777 0.00306484 0 0.0374178
-0.0057264 0.0155753 0 0.000179566
-0.00516063 0.0124211 0 2.26373e-005
-0.000727401 0.00332353 0 0.0217924
0.00177507 0.00499121 0 0.0195084
-0.00104148 0.00729487 0 0.00324676
8.03056e-005 0.00285902 0 0.54448
0.000619507 0.00322392 0 0.0217836
0.000491741 0.00344599 0 0.0150494
-8.64345e-005 0.00319528 0 0.103779
0.000495863 0.00327729 0 0.0123765
0.00629165 0.0165428 0 0.000150119
-0.000348261 0.00373379 0 0.0196781
0.00695359 0.012557 0 4.25667e-005
-0.00614658 0.0186042 0 0.00035994
0.00446424 0.0221677 0 0.000757902
-0.000789844 0.00391708 0 0.00937539
0.000117774 0.00196522 0 0.595692
-0.000255362 0.0148691 0 0.00634738
-0.00503812 0.0284552 0 0.0013704
-0.000107009 0.00253653 0 0.58818
0.000146628 0.00274959 0 0.57399
0.00773255 0.0309094 0 0.000775402
0.000159147 0.00499252 0 0.00840737
0.000514649 0.00313677 0 0.0171104
0.00101358 0.00492618 0 0.00625395
-0.00010231 0.00251506 0 0.588805
-0.000149253 0.0149017 0 0.0079626
-0.0026764 0.0106555 0 0.00890618
-0.000401914 0.00497223 0 0.00788794
-9.9778e-005 0.00250395 0 0.589433
-0.000167489 0.00307565 0 0.0318481
0.00547148 0.0254757 0 0.000529101
6.86885e-005 0.00304125 0 0.27628
-0.00443178 0.028435 0 0.00155875
-9.60567e-005 0.00299261 0 0.453682
0.00605816 0.0243911 0 0.000478952
-0.00166852 0.0218177 0 0.00376305
3.51271e-005 0.00306949 0 0.279661
0.00934401 0.0252145 0 0.000192139
0.000689131 0.0161709 0 0.00561757
-0.00185288 0.0231304 0 0.00335549
-0.000635695 0.0147353 0 0.00475149
0.000424951 0.000378919 0 0.730322
3.11571e-005 0.00341221 0 0.0542451
-0.00451594 0.0239154 0 0.000668775
4.55634e-005 0.00300278 0 0.41876
-0.000190882 0.0026229 0 0.587723
-0.00293428 0.0314144 0 0.00177514
0.000192455 0.0109275 0 0.00184117
-7.99306e-005 0.00301235 0 0.345607
-0.000103784 0.019352 0 0.00840442
0.000298059 0.00179298 0 0.595955
0.000318272 0.00306073 0 0.0152334
4.79498e-005 0.00267219 0 0.576763
0.000550505 0.00439983 0 0.0102545
-6.64966e-005 0.00296368 0 0.483084
-0.000353929 0.0037557 0 0.0195314
0.00136689 0.00417221 0 0.0234184
0.000288631 0.0043673 0 0.0123588
-0.000116817 0.00316526 0 0.0894647
0.000228982 0.00477361 0 0.00934067
-0.00010849 0.00292752 0 0.524287
0.00158742 0.0252298 0 0.00313062
0.00029744 0.00214644 0 0.599545
0.00012001 0.0179918 0 0.00955271
-2.8464e-005 0.00302556 0 0.376828
-0.000121369 0.00301027 0 0.0141713
-0.000613293 0.003423 0 0.0118495
0.000416492 0.000739339 0 0.588277
0.00607599 0.0132862 0 5.01527e-005
-0.000118426 0.00301015 0 0.0148628
0.000338231 0.0030745 0 0.0159376
-0.000760719 0.00047075 0 0.620941
-0.000159712 0.00339978 0 0.04629
0.00621185 0.0259584 0 0.000461388
-0.000407926 0.00403608 0 0.0140758
5.21801e-005 0.0048277 0 0.0093827
0.00820777 0.0174274 0 7.72942e-005
-0.000651027 0.00328042 0 0.021726
-8.91944e-005 0.00296269 0 0.494783
-0.000640908 0.0223311 0 0.00500081
0.00498206 0.0148716 0 0.000219129
-0.000133404 0.00280466 0 0.564681
-0.00284514 0.0101497 0 0.00874341
0.00015129 0.00247549 0 0.591996
0.0036537 0.0164932 0 0.001214
0.000170347 0.00269813 0 0.581223
-0.00192463 0.00759706 0 0.0120249
-0.00146113 0.00452985 0 0.0216786
0.00164564 0.0109866 0 0.00720145
0.00153691 0.0307746 0 0.00199096
0.000402223 0.00321336 0 0.0134717
-0.000561587 0.00118082 0 0.591185
-0.00107178 0.00734408 0 0.0032551
-4.6988e-005 0.00292472 0 0.508994
0.000121356 0.00262665 0 0.583612
-0.00180667 0.021881 0 0.00350044
-0.000301986 0.0030856 0 0.0159194
-0.000116548 0.00289513 0 0.540579
0.000683718 0.0116885 0 0.00449368
-0.000354426 0.00170815 0 0.595518
0.000168525 0.00302989 0 0.0135601
0.0016288 0.00554363 0 0.0154067
-0.000454254 0.00780077 0 0.00311656
9.99188e-005 0.00299126 0 0.457161
-0.000923631 0.00351832 0 0.0234691
-0.000513771 0.00531417 0 0.00651272
-0.000134682 0.0174176 0 0.00947327
0.000245462 0.00302872 0 0.0128407
-0.00010594 0.00296983 0 0.493609
0.000263028 0.00390471 0 0.019168
0.000668464 0.00324245 0 0.01998
-0.00016736 0.00267447 0 0.582888
9.47415e-005 0.00371123 0 0.0282837
0.00421743 0.0282356 0 0.00169201
0.000517536 0.00330043 0 0.0120549
7.86006e-005 0.00301308 0 0.351084
-0.00150253 0.0233222 0 0.00372323
3.50244e-005 0.00343033 0 0.0539596
0.00521285 0.0268086 0 0.000938768
-2.25255e-005 0.00298419 0 0.449239
0.000210866 0.0048041 0 0.00909264
-0.00060708 0.0165096 0 0.00646644
0.00212885 0.0061951 0 0.0157924
-2.66592e-005 0.00312601 0 0.199229
-0.00828018 0.0153779 0 6.89981e-005
-0.00170476 0.0244237 0 0.00315325
-2.90915e-005 0.00298341 0 0.450613
-0.00185381 0.0061466 0 0.0159185
3.45393e-006 0.00277635 0 0.560384
0.00147734 0.00677235 0 0.00761947
0.00789347 0.0314466 0 0.000836379
-0.00613399 0.0273266 0 0.000539899
6.50073e-005 0.00218408 0 0.595632
-0.00147779 0.0231807 0 0.00375722
-0.000188401 0.00264524 0 0.585994
-0.00075172 0.0114273 0 0.0042917
0.00122718 0.0181316 0 0.00367277
-0.000212778 0.0261997 0 0.00298031
-0.000849183 0.00348376 0 0.0234484
0.00262104 0.0134155 0 0.00489803
1.27232e-005 0.00293823 0 0.494923
0.000154311 0.000143575 0 0.9523