# T  FACE_DATA 23640
#  x  y  z  T
-0.00296834 0.0159323 0 94.1512
0.000794309 0.0100339 0 67.4411
0.00690979 0.0130745 0 259.796
0.000158008 0.0018211 0 286.602
-0.000662165 0.0113619 0 79.5886
-0.00203768 0.00587959 0 148.225
-0.000220137 0.00748479 0 71.9966
0.00214531 0.0125841 0 110.328
-0.00164167 0.00702341 0 109.935
0.00020958 0.00306993 0 126.74
4.59799e-005 0.00273939 0 276.446
0.00075606 0.00524313 0 83.828
0.00107075 0.0257944 0 101.603
-0.000458708 0.0115994 0 71.5498
-0.000900467 0.00350322 0 159.988
-0.00222355 0.00655891 0 150.938
0.00442703 0.0182294 0 88.455
7.09705e-005 0.00299924 0 252.827
-2.45517e-005 0.00292714 0 267.546
-0.000543852 0.00394831 0 103.599
7.98376e-005 0.00283498 0 273.864
0.00510868 0.0124654 0 179.182
7.37866e-005 0.00284217 0 273.526
-0.000122136 0.00287943 0 272.95
0.00117211 0.0120328 0 93.2509
0.000340217 0.00636002 0 78.7021
-1.62375e-005 0.00331413 0 160.788
0.000288499 0.00391811 0 110.892
0.00604323 0.0215883 0 84.3501
0.0015748 0.0199438 0 92.324
0.000642306 0.0286533 0 100.536
-0.000788091 0.000235815 0 299.866
8.45076e-005 0.00283429 0 273.935
-0.000766033 0.00453527 0 90.9437
-0.000556446 0.00360452 0 105.581
-0.000694613 0.00330261 0 155.566
0.00425461 0.0181246 0 88.3743
0.00563158 0.0299784 0 100.963
0.00374311 0.0125452 0 114.32
-0.000168184 0.00269727 0 277.66
0.00100487 0.00483203 0 85.1515
-0.00170325 0.00704586 0 111.334
-0.00047461 0.0123053 0 81.0209
-0.00401905 0.0129379 0 106.218
0.000128446 0.00148328 0 291.337
0.000108141 0.00315803 0 176.668
0.00299545 0.0176096 0 89.9955
0.00122698 0.00708374 0 74.3059
0.000214903 0.00307399 0 126.388
0.00225142 0.0126586 0 115.167
0.000204708 0.00068009 0 299.572
4.25297e-005 0.00299727 0 254.986
-0.000477288 0.00315875 0 148.063
-0.00378992 0.02149 0 80.261
0.000139812 0.00181138 0 286.758
0.000208917 0.00302796 0 157.861
-0.00160791 0.0049468 0 130.689
0.000941143 0.00995448 0 73.0604
8.9442e-006 0.010956 0 61.852
-0.000434056 0.00133506 0 292.443
0.000566946 0.0289715 0 100.201
-7.40414e-005 0.003214 0 173.687
-0.000145493 0.00239699 0 280.705
3.42483e-005 0.00298986 0 257.291
0.000575544 0.00987125 0 64.3144
3.71363e-005 0.00299095 0 256.968
-0.00247102 0.00772987 0 144.614
0.00096928 0.0118325 0 90.0038
-9.22697e-005 0.00299969 0 248.203
-0.000570617 0.0122505 0 83.958
-0.000211411 0.00254812 0 279.377
-0.000765289 0.00457715 0 90.2622
8.13068e-005 0.00294139 0 267.252
-0.00437678 0.0203082 0 81.9883
0.00226862 0.00661101 0 147.04
-0.000832194 0.000220534 0 299.768
-0.000164868 0.00301134 0 190.86
0.0012393 0.0259768 0 101.315
-2.48279e-005 0.00292318 0 267.942
0.000116572 0.00245177 0 280.237
9.77655e-005 0.00313112 0 184.74
0.000279024 0.00328636 0 131.244
-5.75605e-005 0.0116355 0 61.3145
-7.47936e-005 0.0117342 0 61.4252
0.000518168 0.00993111 0 64.0211
-0.000154608 0.0030256 0 143.337
4.53443e-005 0.00299839 0 254.551
-0.000161071 0.0027724 0 276.427
0.000104836 0.00293916 0 268.773
-0.00100104 0.00361077 0 160.138
-0.000510005 0.00921774 0 64.8954
0.00100295 0.0100141 0 81.5996
-0.000646084 0.00336418 0 120.547
6.96906e-005 0.00293287 0 267.738
-1.67264e-005 0.00300289 0 253.836
0.000173509 0.0227352 0 108.257
3.17037e-005 0.00298455 0 258.604
0.000312244 0.00306502 0 155.996
-0.00212604 0.00906512 0 109.99
-0.00049218 0.00322389 0 122.776
0.000341345 0.00323843 0 121.715
-0.00385942 0.0216496 0 80.584
-0.000125834 0.0028813 0 273.036
0.00524627 0.0255212 0 83.2466
0.000713781 0.0036837 0 98.3014
0.00601727 0.0299149 0 102.64
-0.000344095 0.00203632 0 283.585
-0.0047341 0.0239481 0 80.3628
-0.000460773 0.00539436 0 84.0423
-0.00196148 0.00905338 0 107.989
0.00143807 0.0303782 0 100.408
7.94637e-005 0.00293894 0 267.447
0.00013473 0.00481908 0 93.4577
0.00105264 0.00484794 0 84.7875
0.000112877 0.0030262 0 168.785
-0.00781161 0.0282885 0 80.1602
-0.000846622 0.00344471 0 160.934
-0.00206201 0.0306837 0 99.7634
-0.00313594 0.0160362 0 93.2984
0.00144289 0.0198776 0 95.8488
-0.000135136 0.00286502 0 273.966
-0.000205101 0.000950881 0 298.017
0.000372212 0.00308853 0 159.42
0.000370404 0.000795868 0 298.866
0.000201681 0.00347815 0 132.934
-0.000147808 0.00278598 0 276.024
0.000218103 0.000637733 0 299.678
0.000195722 0.00313377 0 143.273
-0.00203813 0.00594128 0 145.74
0.00112067 0.00510142 0 82.2261
5.16573e-005 0.00373385 0 123.252
0.000381501 0.00336875 0 119.038
0.000860715 0.0258401 0 102.995
-0.000116556 0.00339842 0 144.614
-0.00513668 0.0257477 0 80.9603
-0.000162894 0.00277847 0 276.466
8.27341e-005 0.00277738 0 275.658
0.0010674 0.0118759 0 91.6855
-4.09992e-005 0.00275121 0 276.16
3.29665e-005 0.00297369 0 260.962
-0.00204547 0.0090065 0 108.951
-0.00160474 0.0048986 0 133.207
8.25825e-005 0.00294819 0 266.533
4.00473e-005 0.00273627 0 276.508
-9.41642e-005 0.00295571 0 266.37
0.00150619 0.00997327 0 99.1518
8.22134e-005 0.00268838 0 277.475
-0.000160791 0.00267895 0 277.82
-0.000596112 0.00909085 0 65.0757
-9.31423e-005 0.00299701 0 254.355
0.00235681 0.0126226 0 118.992
0.00203765 0.00557212 0 163.341
-0.000165794 0.0115731 0 61.9497
6.0159e-005 0.0021996 0 282.564
0.000371981 0.00362464 0 115.826
-0.00733688 0.029685 0 94.8633
-0.000180414 0.00743151 0 72.2295
-0.000357207 0.004885 0 90.7084
0.00253943 0.00813968 0 142.051
-1.29377e-005 0.00332967 0 159.055
-0.0010235 0.00361199 0 169.978
-0.000285329 0.0030748 0 137.367
-0.000681311 0.00329291 0 155.242
-0.00260727 0.00895038 0 141.614
0.00788717 0.0276195 0 83.1761
0.0089704 0.0287411 0 82.665
-0.000270534 0.00232157 0 281.19
-0.00014416 0.00312601 0 163.556
-0.000337662 0.00201762 0 283.815
0.0003962 0.00337513 0 118.119
0.00121317 0.00701782 0 74.2317
0.000116206 0.00302915 0 166.141
0.00225197 0.00666935 0 144.956
-0.000507665 0.00548922 0 82.7446
-0.000231863 0.00226746 0 281.699
0.000244361 0.00226851 0 281.779
0.00111028 0.00505498 0 82.5267
0.000121223 0.00304184 0 164.545
0.00012049 0.00243938 0 280.359
-0.0013386 0.0186068 0 93.8826
0.000102064 0.00149733 0 291.17
0.000147362 0.00301363 0 139.936
0.00106981 0.0119939 0 91.7717
-0.000365953 0.00411169 0 104.978
0.00557444 0.020358 0 85.4225
4.86089e-005 0.00307386 0 219.802
-0.000177413 0.0035472 0 130.782
-0.000632994 0.00339325 0 109.617
0.000487307 0.00130985 0 292.656
-0.000349424 0.00402777 0 107.29
-0.00177251 0.00629586 0 117.292
-7.92525e-005 0.00273084 0 276.676
0.000241714 0.00100077 0 297.49
-0.000154516 0.0114773 0 61.858
0.00502442 0.0222916 0 83.6951
-0.000166546 0.00272686 0 277.241
0.000707598 0.00365891 0 98.3938
-0.00157418 0.0046046 0 151.195
0.000122725 0.00301099 0 133.373
0.000172305 0.00324558 0 151.947
7.46185e-006 0.00286175 0 272.282
0.00533293 0.0140838 0 86.7517
0.00520504 0.0284215 0 103.82
-0.00170266 0.00713636 0 111.313
4.38765e-005 0.00290514 0 269.721
0.00035679 0.0099507 0 63.3328
0.000120447 0.00300871 0 136.296
7.85992e-005 0.00284146 0 273.6
0.000146556 0.00306157 0 151.075
-0.000265484 0.00230758 0 281.34
-0.000558184 0.0114136 0 74.0349
0.000873988 0.011905 0 88.9304
0.00195145 0.0157285 0 96.9542
0.000415959 0.00988952 0 63.7192
0.00204861 0.00551694 0 166.766
0.00159497 0.00893937 0 101.884
0.00125366 0.00690066 0 76.1025
-0.000537482 0.00397822 0 103.107
-0.00245206 0.00890865 0 127.853
-0.00591638 0.015069 0 87.392
0.00182541 0.0157696 0 97.5842
-6.39179e-005 0.00274368 0 276.344
1.24162e-005 0.00286011 0 272.377
0.000785526 0.00520879 0 83.9617
0.000119132 0.00288179 0 272.746
0.000107617 0.00492998 0 92.3313
-0.000398708 0.00617064 0 78.6913
-0.00031795 0.000861625 0 298.537
-0.0054742 0.0145195 0 94.3432
-0.00050603 0.0093045 0 64.9324
-0.00281713 0.0160093 0 92.7686
-0.00521587 0.0225645 0 81.0087
0.000631138 0.00410172 0 97.9578
0.00077675 0.0118594 0 87.6672
-0.000339893 0.00491785 0 90.351
0.000278502 0.0033019 0 131.961
-0.000206291 0.0025551 0 279.282
0.0015782 0.00885327 0 101.824
-0.000601058 0.00917374 0 65.1299
0.000107852 0.00308374 0 187.315
0.000329157 0.00324408 0 123.968
-0.000107456 0.0030138 0 176.138
0.000995869 0.00478803 0 85.1648
-0.00176263 0.00715431 0 111.651
0.000133123 0.00190024 0 285.691
0.00428452 0.0222831 0 82.843
0.00249322 0.0134845 0 113.302
0.000209201 0.00303326 0 142.834
1.124e-005 0.00241342 0 280.625
-0.000138897 0.00282521 0 275.062
-0.000422518 0.00130967 0 292.903
0.000897928 0.00602889 0 78.5323
0.00296246 0.0177704 0 89.6229
-0.000240922 0.0022558 0 281.793
0.000161456 0.0106342 0 62.2536
-0.000169117 0.00269067 0 277.78
-0.00600599 0.0132277 0 210.806
-0.00498542 0.0226529 0 81.2784
0.00035646 0.00189436 0 285.296
0.000360867 0.00193124 0 284.866
0.000188008 0.00159518 0 289.587
0.00315697 0.0294361 0 101.498
0.000380728 0.00331446 0 118.788
-0.000407732 0.00541329 0 85.252
0.00599218 0.0187772 0 86.2748
-0.000475668 0.0124289 0 82.4044
9.243e-005 0.00339173 0 148.179
-0.0022067 0.00902531 0 113.433
0.000138287 0.010546 0 62.2532
-4.59787e-005 0.00300592 0 251.577
0.000475334 0.00325723 0 108.856
0.0081269 0.0233608 0 79.5952
-0.000136448 0.00286953 0 274.06
0.000465099 0.00132931 0 292.531
0.000196949 0.00312437 0 142.297
-0.000725979 0.00459524 0 90.9089
0.00566025 0.0201173 0 86.2088
-0.000237093 0.000937504 0 298.082
-7.15727e-006 0.00298867 0 257.675
-0.000556128 0.00552312 0 82.1144
-0.000151452 0.00278159 0 276.18
0.00604583 0.0167381 0 77.3811
5.44524e-005 0.00307484 0 217.812
3.5211e-005 0.00270778 0 277.056
-0.00210731 0.0068781 0 124.473
8.91266e-005 0.00319599 0 175.467
-0.00242079 0.00974735 0 120.249
0.00135885 0.00413507 0 158.102
-0.00108228 0.00797081 0 69.4588
3.29303e-005 0.00271504 0 276.918
-0.000508078 0.0208168 0 112.109
-0.00472826 0.0198065 0 83.3096
0.00152826 0.0090827 0 100.602
-0.00252462 0.00897287 0 132.129
-4.09377e-005 0.0027578 0 276.001
-0.00186927 0.0116808 0 103.457
0.00108447 0.00518193 0 82.3488
-0.00419392 0.0202211 0 82.0655
0.000296615 0.00594885 0 81.6503
0.00365557 0.0156923 0 95.9395
-0.000138643 0.00311989 0 166.49
3.44704e-005 0.00298593 0 258.257
-0.000249911 0.000891772 0 298.435
0.00110337 0.0099601 0 88.7886
8.04689e-005 0.00279643 0 275.132
0.00779157 0.0249956 0 82.1398
0.000351464 0.00337107 0 121.697
-0.00012879 0.00323538 0 160.839
0.000155895 0.00168996 0 288.325
8.56943e-005 0.00294739 0 266.787
0.0053023 0.0238774 0 82.3898
0.000238423 0.00318026 0 136.871
0.000230406 0.00226533 0 281.82
-5.15866e-005 0.00292996 0 267.582
2.57476e-005 0.00286927 0 271.923
0.000105066 0.00340141 0 146.222
-0.0006343 0.00341198 0 107.43
-0.00683177 0.0130924 0 289.605
-1.54609e-005 0.00299907 0 254.93
-0.00215958 0.00656839 0 137.904
0.00301179 0.0141363 0 106.923
-0.000723924 0.00463742 0 90.7778
-0.000555458 0.00358088 0 106.136
0.000287933 0.00394954 0 109.64
-0.00525881 0.0259389 0 80.7003
-0.000235386 0.00314485 0 134.396
-0.000664883 0.00104525 0 294.983
0.00182857 0.0107598 0 103.481
0.00289308 0.0133881 0 118.499
0.000556851 0.000459359 0 299.804
-6.31462e-005 0.00306344 0 218.775
0.00204396 0.0126442 0 107.807
-0.000369072 0.00408052 0 105.241
-0.00018247 0.00378321 0 117.669
0.000579156 0.0162179 0 103.267
0.00117061 0.0100074 0 91.5464
0.000129771 0.00301154 0 132.845
0.00050022 0.00329429 0 107.365
-0.00194273 0.0117557 0 103.349
0.000295066 0.00600891 0 81.4136
-0.000154748 0.0030213 0 145.21
8.51353e-005 0.00297491 0 262.564
0.000370749 0.00364798 0 115.28
0.00032381 0.000892659 0 298.287
-0.000114683 0.00273658 0 276.675
7.10543e-005 0.0030026 0 251.137
-9.6647e-005 0.00324264 0 165.347
0.000733896 0.00537107 0 83.2586
0.000155197 0.00494735 0 91.4407
0.000610019 0.00412319 0 98.1407
0.000353717 0.00194986 0 284.65
-0.000244432 0.00314026 0 131.46
-0.00502653 0.0232658 0 80.8456
-0.00178789 0.0309983 0 99.9496
-0.000579723 0.00361754 0 105.688
0.00813841 0.0273314 0 83.4461
-0.002496 0.0131044 0 120.103
-0.00431729 0.0290645 0 99.8267
-0.000157683 0.00240005 0 280.659
-6.09633e-005 0.00273787 0 276.492
-0.000172602 0.00356894 0 129.34
5.95493e-005 0.00280503 0 274.751
3.59382e-005 0.00297531 0 260.648
0.0038221 0.0156522 0 96.9773
0.00151814 0.00899556 0 100.769
0.00891208 0.0209237 0 77.977
0.00932881 0.0247628 0 81.4792
0.000401147 0.00319889 0 112.368
-1.37134e-005 0.00292236 0 267.965
-0.00149883 0.0199029 0 96.7717
-0.000151382 0.00307642 0 153.684
-9.99299e-005 0.00297786 0 263.893
0.00528439 0.0241343 0 82.6679
2.61097e-005 0.00286432 0 272.19
0.000206875 0.00349712 0 131.74
-0.00509797 0.0234717 0 81.0996
-0.000597722 0.000953511 0 296.476
-0.00793898 0.0155863 0 125.434
0.00183935 0.0106624 0 103.614
7.52069e-005 0.00339368 0 149.174
-7.77056e-005 0.00294222 0 266.987
-9.8985e-005 0.00297992 0 263.716
0.00161823 0.00911669 0 102.297
8.21842e-005 0.00297527 0 262.192
-0.00188133 0.00900925 0 107.256
-0.00617827 0.0275965 0 87.0716
-0.000490092 0.00321051 0 127.418
0.00945115 0.0288751 0 81.6395
-0.00016434 0.00272067 0 277.338
-0.00797941 0.0222445 0 81.1801
-4.01564e-005 0.00301654 0 247.991
-0.00180498 0.00506765 0 159.68
-0.000161305 0.00301261 0 185.41
-0.000482063 0.00316965 0 142.577
-0.000942791 0.00378901 0 113.403
-0.000134053 0.00282435 0 274.909
0.000242746 0.000963685 0 297.844
0.00525461 0.0274919 0 105.904
0.00306352 0.0179257 0 88.5998
-0.000120066 0.00324295 0 161.444
-0.00319507 0.0125029 0 126.751
-0.000290892 0.00233844 0 281.153
0.00159844 0.00482417 0 138.477
0.00787978 0.0236538 0 80.8521
0.00145057 0.0259009 0 102.555
-0.000336257 0.00619409 0 78.3539
-0.000333917 0.00172186 0 287.45
0.00577509 0.0216659 0 83.0037
0.000667048 0.00332313 0 132.762
0.00248969 0.00807562 0 138.54
-0.00160944 0.00467215 0 151.136
1.98969e-005 0.00242157 0 280.55
0.000286635 0.0021356 0 282.912
-0.00161117 0.00618199 0 114.752
7.54635e-005 0.00268391 0 277.537
0.00101663 0.00497361 0 83.9024
9.78423e-005 0.00320089 0 172.741
-0.000282098 0.0245537 0 104.89
0.00160534 0.0053807 0 123.451
0.000645555 0.00426047 0 96.5781
0.000344665 0.00191282 0 285.1
-4.37224e-005 0.0030135 0 248.857
0.000410526 0.00592784 0 80.9067
-0.00161438 0.00462874 0 158.509
0.000197339 0.00307463 0 130.025
-0.00787948 0.0250527 0 81.417
0.000365567 0.000836364 0 298.622
0.000428529 0.0031113 0 166.641
6.29689e-005 0.00280138 0 274.857
-0.00260928 0.0115127 0 127.45
0.00511854 0.0182191 0 86.8285
-0.000191506 0.0013612 0 292.955
0.000255298 0.00234631 0 281.094
7.80872e-005 0.00285378 0 273.105
-6.93966e-006 0.00361778 0 131.085
-0.000112834 0.00273034 0 276.781
-0.000151306 0.00308356 0 155.744
0.000794921 0.00339323 0 154.049
0.000120559 0.00308016 0 177.825
-0.00060963 0.000994212 0 295.987
-0.000187211 0.00375918 0 118.778
-0.000179749 0.00239602 0 280.668
0.000583853 0.00320912 0 159.109
-0.000220391 0.00307379 0 130.359
-3.20721e-005 0.00313154 0 202.311
-0.00240166 0.00829286 0 130.044
-0.000107553 0.0032363 0 164.448
0.000485775 0.00324734 0 110.176
-1.6528e-005 0.00283252 0 273.63
0.000388916 0.00319175 0 113.058
-0.000191501 0.000101552 0 299.998
-0.00244196 0.00780076 0 141.778
-0.000237142 0.00223825 0 281.969
-0.00179252 0.00511195 0 152.968
7.86645e-005 0.00300926 0 243.716
-0.00578012 0.0268724 0 84.1684
-0.00101007 0.00801211 0 68.8045
0.000363332 0.00337974 0 121.304
0.000391279 0.00186159 0 285.557
0.000433244 0.00317308 0 119.671
0.00161612 0.00543442 0 122.342
-0.00207993 0.00693738 0 122.572
0.000483914 0.00474879 0 92.0851
0.000802557 6.40842e-005 0 299.999
0.00066144 0.00330597 0 136.691
0.00141767 0.0197289 0 95.3937
-0.000651775 0.00329699 0 141.86
0.000282152 0.00304241 0 186.609
-0.000357054 0.00319624 0 117.592
-0.00178284 0.00623412 0 117.764
3.8992e-005 0.00380209 0 120.948
-0.00100109 0.0210667 0 110.23
0.000165033 0.00158259 0 289.822
0.00864187 0.0174253 0 91.7181
0.00315453 0.0128329 0 120.653
-8.64597e-005 0.00318341 0 177.338
-0.000259494 0.0126492 0 76.8032
0.000466396 0.000355167 0 299.957
0.000246728 0.00318708 0 135.697
-0.000724122 0.000493878 0 299.104
-0.00236534 0.0089472 0 121.937
-0.00585899 0.0184819 0 84.2055
-0.000109395 0.00425783 0 104.176
-0.000225082 0.00307869 0 130.124
0.00116126 0.00383867 0 154.829
0.000146244 0.00305529 0 148.959
0.000106639 0.00285591 0 273.411
0.00516349 0.0142403 0 86.0832
-0.000547118 0.0281975 0 101.663
-0.00314055 0.0188201 0 83.8436
6.39205e-005 0.0034062 0 147.88
0.000746714 0.00049437 0 298.943
0.00226648 0.0258744 0 101.6
-0.000137355 0.00283875 0 274.739
0.00173233 0.0108179 0 101.373
-0.000334456 0.00625618 0 78.3004
-0.000652252 0.00338145 0 117.654
-6.89277e-005 0.00306466 0 215.992
0.000126795 0.00304178 0 156.982
0.00478399 0.0277755 0 103.606
0.000516287 0.0229306 0 107.104
5.89116e-005 0.00254342 0 279.355
-0.00795861 0.0246948 0 81.622
0.00133689 0.00999394 0 95.8753
-0.000118825 0.0220921 0 110.623
6.34909e-005 0.0107046 0 62.089
-0.000946741 0.00381309 0 111.142
0.00581241 0.0241952 0 83.5665
-0.00487736 0.01991 0 83.3658
0.00170829 0.0256098 0 102.814
9.98067e-005 0.00316224 0 178.286
0.00308063 0.0142797 0 104.774
-0.000279242 0.00307977 0 131.693
-0.000183934 0.00303725 0 139.876
7.83288e-005 0.00286324 0 272.639
-0.000440884 0.00514493 0 86.5698
0.000455558 0.00477565 0 91.8751
0.00520625 0.0221693 0 83.8685
-0.00179507 0.00722781 0 112.336
5.54873e-005 0.00266826 0 277.759
-0.00157971 0.00456195 0 158.53
4.18607e-005 0.00302762 0 243.252
-0.000194972 5.19224e-005 0 299.999
-0.000846289 0.00342394 0 170.707
-0.00105965 0.00823661 0 69.2914
0.000163413 0.00479131 0 93.66
-8.2874e-005 0.00288534 0 271.607
0.00157378 0.00552232 0 120.269
-7.66839e-005 0.00293931 0 267.284
0.000101978 0.0109948 0 61.6045
-0.000363872 0.00601296 0 80.0604
0.000117978 0.00287815 0 272.852
0.000219153 0.00318835 0 140.465
-0.00163196 0.00449872 0 180.137
-0.000221409 0.00303399 0 165.445
-0.000370966 0.0244074 0 104.888
-0.000466554 0.00315829 0 143.666
0.000396164 0.00331941 0 116.855
-0.00482666 0.0238063 0 80.937
0.00133411 0.00522841 0 94.4779
-0.00267568 0.00982141 0 140.848
-0.000480207 0.0219659 0 110.177
0.00177473 0.0106071 0 102.832
0.000428512 0.00597987 0 80.8403
0.00330832 0.0202369 0 83.9134
-0.00036699 0.012473 0 78.4025
-0.000901486 0.00347959 0 169.729
-9.70158e-005 0.00294708 0 267.624
-0.00110466 0.0144253 0 95.7042
-0.00107199 0.0143087 0 95.8843
0.000113095 0.0030798 0 184.34
0.000776547 0.0117402 0 87.5767
-0.000196596 0.00302496 0 171.667
-0.00581483 0.0148124 0 87.5066
0.000125326 0.00308478 0 175.151
-0.00172589 0.0230235 0 104.826
-0.00123798 0.0114294 0 94.9029
-0.000106038 0.00301072 0 176.353
7.68012e-005 0.00277918 0 275.583
-0.000218387 0.00226751 0 281.719
0.00288382 0.0120736 0 150.798
0.000136685 0.00272066 0 277.128
0.00126396 0.00994364 0 94.4776
0.000169734 0.00323168 0 153.201
3.33298e-005 0.00296283 0 262.969
7.38909e-005 0.00285244 0 273.11
0.00226662 0.00684142 0 139.649
-4.80444e-005 0.00288948 0 270.858
0.000117291 0.00304527 0 172.501
0.00044057 0.00316393 0 125.155
0.00025781 0.000139806 0 299.998
-0.000553437 0.0115383 0 74.7473
0.00174054 0.0109254 0 101.509
-0.00657824 0.0304887 0 96.4336
-0.00287878 0.0309438 0 99.9464
-1.74214e-005 0.00292383 0 267.836
0.000417861 0.00311152 0 160.173
-0.000158816 0.00302837 0 141.457
0.000540608 0.00339996 0 105.82
0.00322243 0.0179545 0 88.7207
-0.000159371 0.0013528 0 293.143
0.000126077 0.0159893 0 111.929
-0.00432652 0.0294311 0 100.034
0.0015673 0.00546801 0 120.823
-5.0904e-005 0.00292621 0 267.974
-0.000106737 0.00293051 0 269.64
0.00275932 0.0110589 0 138.712
0.000556951 0.00340784 0 105.254
0.000399007 0.0063813 0 77.948
-4.55764e-005 0.00288684 0 270.997
5.78688e-005 0.00240298 0 280.713
-0.00135948 0.0128543 0 96.5091
0.00105587 0.00489705 0 84.322
-0.00180772 0.00736401 0 111.671
8.62884e-005 0.0107917 0 62.1232
-1.73838e-005 0.00299616 0 255.738
-0.000559779 0.00402893 0 101.393
-0.000129894 0.00339006 0 144.02
-0.00108645 0.0209701 0 110.167
-0.000355289 0.00318516 0 117.666
6.75287e-005 0.00268766 0 277.457
-1.6399e-005 0.00282695 0 273.85
0.000375645 0.00184967 0 285.737
0.000226595 0.00318087 0 139.292
-0.00157723 0.0197887 0 94.3523
0.000153682 0.00302297 0 130.501
-0.000983791 0.00376429 0 124.009
0.00320404 0.0139037 0 106.28
-0.000399729 0.0051532 0 87.832
-8.43671e-005 0.0028893 0 271.375
0.00153091 0.0204307 0 100.179
0.0023948 0.0125217 0 118.9
0.000662239 0.00525468 0 84.4921
-0.00103759 0.0179087 0 98.2739
-0.00194218 0.00558429 0 147.542
-0.000960129 0.00376594 0 120.545
-0.000309837 0.00306474 0 160.012
0.00162461 0.00920594 0 102.398
0.00346181 0.0203111 0 83.9339
0.000412094 0.000782235 0 298.877
4.10836e-005 0.00290739 0 269.501
0.00107752 0.00513333 0 82.6577
-0.00139776 0.00696247 0 86.2418
5.83714e-005 0.0023895 0 280.839
0.000501828 0.0119171 0 77.5048
-2.97555e-005 0.00300349 0 253.302
0.00113092 0.00612109 0 75.363
3.11664e-005 0.00285722 0 272.568
-0.000756348 0.0223669 0 108.434
0.000606022 0.00322532 0 160.019
0.00858419 0.0213223 0 78.8589
0.00228739 0.00873166 0 120.481
-0.00330691 0.0124678 0 116.717
-0.00135503 0.018735 0 93.9207
-0.00782909 0.0173425 0 81.605
0.000179373 0.00168518 0 288.354
0.000181353 0.0228576 0 108.22
0.00116853 0.00608209 0 75.6441
0.00534216 0.0272787 0 103.997
0.000808836 0.00340365 0 154.355
-0.00176706 0.00728799 0 111.769
0.000366125 0.00308127 0 166.8
0.000142062 0.00271694 0 277.213
0.000456136 0.0264018 0 102.577
0.000149779 0.00301624 0 135.164
8.09965e-005 0.015903 0 111.936
3.07264e-005 0.00286231 0 272.311
-0.000148146 0.00339011 0 143.018
-0.0064378 0.0277565 0 84.5179
0.00072806 0.00532362 0 83.3869
-0.00065633 0.00335203 0 127.163
-0.000360464 0.000878987 0 298.305
-9.67537e-005 0.00295742 0 266.47
-0.000484113 0.00948683 0 64.4725
-0.000565445 0.00399845 0 102.209
0.000588623 0.00111811 0 294.461
0.000130395 0.00304539 0 157.13
0.000107754 0.00285149 0 273.606
0.00165731 0.0250536 0 103.016
0.00285988 0.0119675 0 150.529
-9.54028e-005 0.00428588 0 103.638
-0.000124414 0.00317156 0 169.539
-0.00814733 0.0285856 0 79.4971
-0.000216377 0.0031251 0 137.187
0.00549751 0.012219 0 221.428
-0.00550796 0.012201 0 255.402
0.00287309 0.0132504 0 118.761
0.000396043 0.00090361 0 298.021
-9.96587e-005 0.00294535 0 267.965
-0.00215947 0.00674928 0 131
-0.000289559 0.000893856 0 298.347
0.00184728 0.00894591 0 106.89
-0.000404895 0.00611192 0 78.7621
-0.00085135 0.00350535 0 138.742
3.34633e-006 0.00298331 0 258.909
0.00378526 0.0199019 0 84.6969
-0.000528492 0.024373 0 106.317
-0.000842118 0.0116133 0 88.7053
-0.00298148 0.0188909 0 83.7747
5.9556e-005 0.0025331 0 279.468
-0.000468824 0.00121303 0 294.036
9.1581e-005 0.0171817 0 116.327
-0.00127026 0.0113439 0 95.4973
0.00402234 0.0130084 0 95.6909
-0.000363163 0.00496329 0 89.2273
-0.00609252 0.0268039 0 81.1317
0.000283831 0.00172705 0 287.528
-0.000884834 0.00452052 0 88.655
0.000104251 0.00312707 0 183.181
0.00028648 0.000908897 0 298.235
0.00627587 0.0218045 0 85.131
0.000138189 0.00301242 0 140.589
-8.45766e-005 0.00300744 0 241.527
-0.000367296 0.0115469 0 65.6591
4.43738e-005 0.00303088 0 241.337
0.00481648 0.0179238 0 87.8769
0.00149749 0.00436073 0 160.506
0.00128386 0.00510424 0 86.989
-0.000137123 0.00279496 0 275.715
0.00010392 0.0048879 0 92.5623
-0.00091848 7.16259e-005 0 299.967
3.54985e-006 0.00298714 0 258.055
0.000749152 0.00426831 0 93.6692
-0.000130195 0.00286367 0 273.876
0.00513916 0.0264131 0 92.4517
-0.00145383 0.00693267 0 93.5407
-0.000170314 0.00271408 0 277.512
0.000708754 0.00344963 0 111.283
0.000173403 0.0026398 0 278.449
0.00102924 0.00397184 0 109.744
7.04719e-005 0.00292897 0 268.143
-0.000154347 0.00277069 0 276.419
0.000152777 0.00306484 0 148.59
-0.0057264 0.0155753 0 84.8942
-0.00516063 0.0124211 0 227.423
-0.000727401 0.00332353 0 162.984
0.00177507 0.00499121 0 153.869
-0.00104148 0.00729487 0 70.3476
8.03056e-005 0.00285902 0 272.852
0.000619507 0.00322392 0 171.315
0.000491741 0.00344599 0 110.068
-8.64345e-005 0.00319528 0 175.205
0.000495863 0.00327729 0 108.213
0.00629165 0.0165428 0 82.3347
-0.000348261 0.00373379 0 114.154
0.00695359 0.012557 0 280.807
-0.00614658 0.0186042 0 82.7856
0.00446424 0.0221677 0 83.7994
-0.000789844 0.00391708 0 95.2583
0.000117774 0.00196522 0 284.932
-0.000255362 0.0148691 0 100.621
-0.00503812 0.0284552 0 99.1668
-0.000107009 0.00253653 0 279.428
0.000146628 0.00274959 0 276.773
0.00773255 0.0309094 0 102.481
0.000159147 0.00499252 0 91.1582
0.000514649 0.00313677 0 205.819
0.00101358 0.00492618 0 84.329
-0.00010231 0.00251506 0 279.636
-0.000149253 0.0149017 0 107.216
-0.0026764 0.0106555 0 134.926
-0.000401914 0.00497223 0 88.8967
-9.9778e-005 0.00250395 0 279.749
-0.000167489 0.00307565 0 145.556
0.00547148 0.0254757 0 82.601
6.86885e-005 0.00304125 0 226.439
-0.00443178 0.028435 0 99.6054
-9.60567e-005 0.00299261 0 260.257
0.00605816 0.0243911 0 83.6568
-0.00166852 0.0218177 0 104.761
3.51271e-005 0.00306949 0 224.992
0.00934401 0.0252145 0 81.4921
0.000689131 0.0161709 0 98.293
-0.00185288 0.0231304 0 104.436
-0.000635695 0.0147353 0 91.064
0.000424951 0.000378919 0 299.95
3.11571e-005 0.00341221 0 147.766
-0.00451594 0.0239154 0 79.1329
4.55634e-005 0.00300278 0 253.114
-0.000190882 0.0026229 0 278.649
-0.00293428 0.0314144 0 100.663
0.000192455 0.0109275 0 61.7774
-7.99306e-005 0.00301235 0 239.205
-0.000103784 0.019352 0 117.912
0.000298059 0.00179298 0 286.6
0.000318272 0.00306073 0 170.573
4.79498e-005 0.00267219 0 277.703
0.000550505 0.00439983 0 95.6377
-6.64966e-005 0.00296368 0 263.546
-0.000353929 0.0037557 0 113.675
0.00136689 0.00417221 0 153.081
0.000288631 0.0043673 0 100.624
-0.000116817 0.00316526 0 172.453
0.000228982 0.00477361 0 93.4837
-0.00010849 0.00292752 0 269.906
0.00158742 0.0252298 0 103.185
0.00029744 0.00214644 0 282.776
0.00012001 0.0179918 0 118.82
-2.8464e-005 0.00302556 0 245.628
-0.000121369 0.00301027 0 130.183
-0.000613293 0.003423 0 105.631
0.000416492 0.000739339 0 299.101
0.00607599 0.0132862 0 182.525
-0.000118426 0.00301015 0 130.297
0.000338231 0.0030745 0 156.487
-0.000760719 0.00047075 0 299.035
-0.000159712 0.00339978 0 141.526
0.00621185 0.0259584 0 83.5209
-0.000407926 0.00403608 0 104.517
5.21801e-005 0.0048277 0 93.9613
0.00820777 0.0174274 0 80.3061
-0.000651027 0.00328042 0 148.472
-8.91944e-005 0.00296269 0 265.118
-0.000640908 0.0223311 0 108.768
0.00498206 0.0148716 0 80.6934
-0.000133404 0.00280466 0 275.358
-0.00284514 0.0101497 0 153.975
0.00015129 0.00247549 0 280.029
0.0036537 0.0164932 0 91.9767
0.000170347 0.00269813 0 277.776
-0.00192463 0.00759706 0 112.439
-0.00146113 0.00452985 0 135.096
0.00164564 0.0109866 0 100.157
0.00153691 0.0307746 0 101.174
0.000402223 0.00321336 0 111.718
-0.000561587 0.00118082 0 293.806
-0.00107178 0.00734408 0 70.4109
-4.6988e-005 0.00292472 0 268.05
0.000121356 0.00262665 0 278.399
-0.00180667 0.021881 0 103.54
-0.000301986 0.0030856 0 134.267
-0.000116548 0.00289513 0 272.148
0.000683718 0.0116885 0 84.6984
-0.000354426 0.00170815 0 287.567
0.000168525 0.00302989 0 128.95
0.0016288 0.00554363 0 121.124
-0.000454254 0.00780077 0 70.1159
9.99188e-005 0.00299126 0 262.179
-0.000923631 0.00351832 0 162.021
-0.000513771 0.00531417 0 84.5469
-0.000134682 0.0174176 0 118.112
0.000245462 0.00302872 0 195.389
-0.00010594 0.00296983 0 267.078
0.000263028 0.00390471 0 112.41
0.000668464 0.00324245 0 194.875
-0.00016736 0.00267447 0 277.928
9.47415e-005 0.00371123 0 124.556
0.00421743 0.0282356 0 102.002
0.000517536 0.00330043 0 107.435
7.86006e-005 0.00301308 0 239.927
-0.00150253 0.0233222 0 105.349
3.50244e-005 0.00343033 0 146.545
0.00521285 0.0268086 0 101.62
-2.25255e-005 0.00298419 0 258.64
0.000210866 0.0048041 0 93.1194
-0.00060708 0.0165096 0 103.56
0.00212885 0.0061951 0 145.425
-2.66592e-005 0.00312601 0 204.867
-0.00828018 0.0153779 0 178.529
-0.00170476 0.0244237 0 103.572
-2.90915e-005 0.00298341 0 258.793
-0.00185381 0.0061466 0 119.557
3.45393e-006 0.00277635 0 275.486
0.00147734 0.00677235 0 97.9994
0.00789347 0.0314466 0 102.445
-0.00613399 0.0273266 0 83.9411
6.50073e-005 0.00218408 0 282.713
-0.00147779 0.0231807 0 105.72
-0.000188401 0.00264524 0 278.447
-0.00075172 0.0114273 0 83.9
0.00122718 0.0181316 0 93.1157
-0.000212778 0.0261997 0 102.74
-0.000849183 0.00348376 0 144.346
0.00262104 0.0134155 0 114.78
1.27232e-005 0.00293823 0 266.267
0.000154311 0.000143575 0 299.997
0.00227939 0.00864795 0 120.423
-0.000341661 0.00336084 0 123.181
-0.00187213 0.00737965 0 112.238
-0.000325102 0.00324186 0 123.905
0.00106283 0.00405371 0 110.762
0.00306202 0.0160229 0 95.2208
-0.00125502 0.0209796 0 107.969
-0.000371653 0.00205944 0 283.395
-6.26965e-005 0.00321945 0 174.123
0.00162374 0.026075 0 102.097
2.10167e-006 0.00278249 0 275.309
-0.0055484 0.0286456 0 98.7008
0.00015094 0.0013019 0 293.903
0.000698722 0.0033001 0 157.566
-0.000209116 0.00313022 0 140.095
0.000178301 0.00263421 0 278.521
-0.000170601 0.00241911 0 280.477
6.51233e-005 0.00278293 0 275.433
0.000796117 0.00012178 0 299.993
-0.00585119 0.020535 0 81.909
-0.000609924 0.00122633 0 292.83
-0.000102624 0.00304973 0 192.411
0.00514232 0.0257801 0 84.1508
-0.00828702 0.0225688 0 80.2964
-0.000614799 0.00344241 0 104.157
-0.00151189 0.0188183 0 90.3567
-3.25492e-005 0.0029848 0 258.441
0.00054607 0.027935 0 100.3
-0.000162612 0.00307065 0 147.293
0.00170386 0.00536783 0 128.14
0.000122657 0.00246052 0 280.168
0.000114118 0.00372299 0 123.74
0.000279019 0.00175174 0 287.211
-0.00259204 0.0130168 0 121.849
0.0051502 0.0128645 0 141.68
-9.8562e-005 0.00342344 0 143.115
-0.000685127 0.00529569 0 84.0137
-0.000466511 0.00313725 0 166.442
0.000190709 0.00268308 0 278.159
0.000395417 0.00366064 0 114.084
0.000169582 0.00301879 0 152.244
-0.00265958 0.00992127 0 138.89
-0.00519759 0.0137459 0 103.158
-0.000114222 0.00289247 0 272.105
2.13384e-005 0.00287136 0 271.797
0.000112396 0.0030073 0 130.528
-0.000364131 0.0125976 0 80.4263
0.000638801 0.0281464 0 100.902
-7.63196e-005 0.00301224 0 241.549
0.00647815 0.0133628 0 224.322
0.000321473 0.00338261 0 125.715
-0.00275906 0.0101546 0 147.009
-0.00198739 0.00761012 0 112.789
-0.00766429 0.0300439 0 93.7887
-0.000176722 0.00312882 0 151.356
-0.00800327 0.0218525 0 81.4719
0.00020237 0.00307009 0 127.57
-0.000414328 0.00346374 0 115.873
-0.000653425 0.00100717 0 295.469
0.000805931 0.0226935 0 107.389