# U  FACE_DATA 23640
#  x  y  z  U_x  U_y  U_z  
-0.00296834 0.0159323 0 -569.209 2728.92 0
0.000794309 0.0100339 0 244.236 2916.07 0
0.00690979 0.0130745 0 449.914 434.339 0
0.000158008 0.0018211 0 -17.0739 132.052 0
-0.000662165 0.0113619 0 198.607 2808.99 0
-0.00203768 0.00587959 0 -574.126 2074.9 0
-0.000220137 0.00748479 0 -141.353 2835.45 0
0.00214531 0.0125841 0 -164.866 2570.55 0
-0.00164167 0.00702341 0 -354.775 2676.71 0
0.00020958 0.00306993 0 2301.23 639.462 0
4.59799e-005 0.00273939 0 -34.1432 437.547 0
0.00075606 0.00524313 0 952.16 2578.94 0
0.00107075 0.0257944 0 302.503 3031.62 0
-0.000458708 0.0115994 0 128.073 2867.43 0
-0.000900467 0.00350322 0 -1442.89 1452.61 0
-0.00222355 0.00655891 0 -449.506 2134.44 0
0.00442703 0.0182294 0 1103.2 2823.84 0
7.09705e-005 0.00299924 0 -119.309 1039.2 0
-2.45517e-005 0.00292714 0 43.0305 732.891 0
-0.000543852 0.00394831 0 -1432.14 2195.23 0
7.98376e-005 0.00283498 0 -85.8348 528.058 0
0.00510868 0.0124654 0 895.213 281.041 0
7.37866e-005 0.00284217 0 -82.793 541.18 0
-0.000122136 0.00287943 0 146.413 538.874 0
0.00117211 0.0120328 0 -305.698 2722 0
0.000340217 0.00636002 0 302.245 2776.63 0
-1.62375e-005 0.00331413 0 -100.599 2154.84 0
0.000288499 0.00391811 0 833.555 2382.29 0
0.00604323 0.0215883 0 1356 2813.23 0
0.0015748 0.0199438 0 208.376 2896.3 0
0.000642306 0.0286533 0 191.169 3172.09 0
-0.000788091 0.000235815 0 -6.44423 9.30588 0
8.45076e-005 0.00283429 0 -89.9996 524.35 0
-0.000766033 0.00453527 0 -1325.53 2347.78 0
-0.000556446 0.00360452 0 -1854.99 1667.34 0
-0.000694613 0.00330261 0 -1690.6 1227 0
0.00425461 0.0181246 0 1012.69 2718.17 0
0.00563158 0.0299784 0 1281.64 2923.61 0
0.00374311 0.0125452 0 1519.6 1019.02 0
-0.000168184 0.00269727 0 96.3569 361.268 0
0.00100487 0.00483203 0 1428.55 2319.26 0
-0.00170325 0.00704586 0 -349.777 2650.87 0
-0.00047461 0.0123053 0 381.653 2774.49 0
-0.00401905 0.0129379 0 -1861.67 1176.47 0
0.000128446 0.00148328 0 -10.0085 86.4247 0
0.000108141 0.00315803 0 929.812 1708.63 0
0.00299545 0.0176096 0 501.645 2861.26 0
0.00122698 0.00708374 0 801.423 2697.74 0
0.000214903 0.00307399 0 2290.34 626.698 0
0.00225142 0.0126586 0 -163.837 2554.83 0
0.000204708 0.00068009 0 3.05876 21.3285 0
4.25297e-005 0.00299727 0 -68.3067 1013.88 0
-0.000477288 0.00315875 0 -1893.79 943.867 0
-0.00378992 0.02149 0 -725.476 2966.18 0
0.000139812 0.00181138 0 -14.9956 130.138 0
0.000208917 0.00302796 0 1640.61 336.458 0
-0.00160791 0.0049468 0 -797.08 2055.14 0
0.000941143 0.00995448 0 142.413 2821.09 0
8.9442e-006 0.010956 0 19.5836 2949.63 0
-0.000434056 0.00133506 0 30.9943 95.8832 0
0.000566946 0.0289715 0 129.112 3163.93 0
-7.40414e-005 0.003214 0 -587.391 1914.84 0
-0.000145493 0.00239699 0 40.0511 248.517 0
3.42483e-005 0.00298986 0 -62.228 971.841 0
0.000575544 0.00987125 0 247.687 2908.14 0
3.71363e-005 0.00299095 0 -66.9708 978.374 0
-0.00247102 0.00772987 0 -336.895 2181.14 0
0.00096928 0.0118325 0 -331.388 2724.27 0
-9.22697e-005 0.00299969 0 175.703 1049.08 0
-0.000570617 0.0122505 0 404.069 2741.39 0
-0.000211411 0.00254812 0 76.2721 282.155 0
-0.000765289 0.00457715 0 -1281.61 2354.36 0
8.13068e-005 0.00294139 0 -147.222 718.605 0
-0.00437678 0.0203082 0 -922.699 2877.14 0
0.00226862 0.00661101 0 469.922 2104.12 0
-0.000832194 0.000220534 0 -7.03739 12.6053 0
-0.000164868 0.00301134 0 -439.64 61.4126 0
0.0012393 0.0259768 0 372.892 3037.64 0
-2.48279e-005 0.00292318 0 43.0028 722.021 0
0.000116572 0.00245177 0 -36.1501 268.923 0
9.77655e-005 0.00313112 0 856.221 1658.63 0
0.000279024 0.00328636 0 1720.45 1540.44 0
-5.75605e-005 0.0116355 0 15.5906 2963.72 0
-7.47936e-005 0.0117342 0 16.7229 2963.57 0
0.000518168 0.00993111 0 238.924 2911.57 0
-0.000154608 0.0030256 0 -2051.79 471.506 0
4.53443e-005 0.00299839 0 -72.3932 1022.37 0
-0.000161071 0.0027724 0 115.646 399.765 0
0.000104836 0.00293916 0 -177.068 659.961 0
-0.00100104 0.00361077 0 -1328.96 1533.13 0
-0.000510005 0.00921774 0 -261.861 2889.69 0
0.00100295 0.0100141 0 -24.9511 2775.2 0
-0.000646084 0.00336418 0 -2006.22 1273.92 0
6.96906e-005 0.00293287 0 -122.947 712.993 0
-1.67264e-005 0.00300289 0 22.1069 1040.08 0
0.000173509 0.0227352 0 49.7001 2937.24 0
3.17037e-005 0.00298455 0 -60.486 944.881 0
0.000312244 0.00306502 0 1942.27 607.373 0
-0.00212604 0.00906512 0 -100.305 2485.63 0
-0.00049218 0.00322389 0 -2121.16 992.958 0
0.000341345 0.00323843 0 2026.16 1136.04 0
-0.00385942 0.0216496 0 -720.729 2968.25 0
-0.000125834 0.0028813 0 148.564 530.517 0
0.00524627 0.0255212 0 906.955 3130.84 0
0.000713781 0.0036837 0 2025.74 1575.82 0
0.00601727 0.0299149 0 1369.8 2894.37 0
-0.000344095 0.00203632 0 44.0289 161.516 0
-0.0047341 0.0239481 0 -875.846 3023.8 0
-0.000460773 0.00539436 0 -539.244 2676.97 0
-0.00196148 0.00905338 0 -76.393 2579.68 0
0.00143807 0.0303782 0 328.842 3200.67 0
7.94637e-005 0.00293894 0 -141.909 714.381 0
0.00013473 0.00481908 0 224.516 2668.61 0
0.00105264 0.00484794 0 1454.4 2316.66 0
0.000112877 0.0030262 0 1658.51 1334.47 0
-0.00781161 0.0282885 0 -1343.39 3013.01 0
-0.000846622 0.00344471 0 -1498.29 1397.5 0
-0.00206201 0.0306837 0 -470.711 3197.32 0
-0.00313594 0.0160362 0 -629.129 2711.85 0
0.00144289 0.0198776 0 190.455 2872.29 0
-0.000135136 0.00286502 0 144.01 493.483 0
-0.000205101 0.000950881 0 4.99735 36.4549 0
0.000372212 0.00308853 0 1893.61 723.661 0
0.000370404 0.000795868 0 -1.03144 33.1709 0
0.000201681 0.00347815 0 992.185 2121.56 0
-0.000147808 0.00278598 0 115.383 425.871 0
0.000218103 0.000637733 0 3.8154 18.6176 0
0.000195722 0.00313377 0 1827.47 1184.39 0
-0.00203813 0.00594128 0 -557.889 2104.52 0
0.00112067 0.00510142 0 1379.94 2345.72 0
5.16573e-005 0.00373385 0 200.049 2443.1 0
0.000381501 0.00336875 0 1852.62 1492.35 0
0.000860715 0.0258401 0 246.403 3060.87 0
-0.000116556 0.00339842 0 -685.217 2181.7 0
-0.00513668 0.0257477 0 -924.294 3031.31 0
-0.000162894 0.00277847 0 117.439 401.711 0
8.27341e-005 0.00277738 0 -69.6304 462.725 0
0.0010674 0.0118759 0 -315.11 2728.34 0
-4.09992e-005 0.00275121 0 31.9007 448.73 0
3.29665e-005 0.00297369 0 -65.728 893.049 0
-0.00204547 0.0090065 0 -101.656 2510.19 0
-0.00160474 0.0048986 0 -799.481 2041.77 0
8.25825e-005 0.00294819 0 -155.839 735.58 0
4.00473e-005 0.00273627 0 -29.5487 435.364 0
-9.41642e-005 0.00295571 0 181.106 731.486 0
0.00150619 0.00997327 0 -104.266 2681.03 0
8.22134e-005 0.00268838 0 -50.0951 390.269 0
-0.000160791 0.00267895 0 88.3245 357.859 0
-0.000596112 0.00909085 0 -296.594 2871.87 0
-9.31423e-005 0.00299701 0 213.476 974.511 0
0.00235681 0.0126226 0 -135.165 2531.19 0
0.00203765 0.00557212 0 608.443 1888.69 0
-0.000165794 0.0115731 0 -7.21362 2951.66 0
6.0159e-005 0.0021996 0 -11.2319 199.985 0
0.000371981 0.00362464 0 1397.65 2060.17 0
-0.00733688 0.029685 0 -1456.48 2923.48 0
-0.000180414 0.00743151 0 -132.648 2842.45 0
-0.000357207 0.004885 0 -531.248 2621.89 0
0.00253943 0.00813968 0 300.98 2252.4 0
-1.29377e-005 0.00332967 0 -76.7575 2141.91 0
-0.0010235 0.00361199 0 -1282.71 1503.38 0
-0.000285329 0.0030748 0 -2166.14 601.894 0
-0.000681311 0.00329291 0 -1694.54 1216.3 0
-0.00260727 0.00895038 0 -215.093 2273.53 0
0.00788717 0.0276195 0 1372.28 3064.53 0
0.0089704 0.0287411 0 1501.5 2909.27 0
-0.000270534 0.00232157 0 57.2851 212.567 0
-0.00014416 0.00312601 0 -1369.95 1457.25 0
-0.000337662 0.00201762 0 42.4153 159.783 0
0.0003962 0.00337513 0 1883.73 1498.65 0
0.00121317 0.00701782 0 804.194 2693.97 0
0.000116206 0.00302915 0 1714.94 1264.11 0
0.00225197 0.00666935 0 449.262 2132.95 0
-0.000507665 0.00548922 0 -595.637 2672.11 0
-0.000231863 0.00226746 0 46.6184 207.871 0
0.000244361 0.00226851 0 -48.5894 206.461 0
0.00111028 0.00505498 0 1415.52 2355.18 0
0.000121223 0.00304184 0 1534.14 1143.74 0
0.00012049 0.00243938 0 -36.5371 264.404 0
-0.0013386 0.0186068 0 64.2087 2945.57 0
0.000102064 0.00149733 0 -7.9026 87.553 0
0.000147362 0.00301363 0 1354.62 256.385 0
0.00106981 0.0119939 0 -315.377 2724.73 0
-0.000365953 0.00411169 0 -909.524 2443.95 0
0.00557444 0.020358 0 1312.18 2798.64 0
4.86089e-005 0.00307386 0 242.439 1497.43 0
-0.000177413 0.0035472 0 -801.989 2250.27 0
-0.000632994 0.00339325 0 -2134.12 1183.45 0
0.000487307 0.00130985 0 -31.8157 100.145 0
-0.000349424 0.00402777 0 -892.133 2408.23 0
-0.00177251 0.00629586 0 -490.011 2396.29 0
-7.92525e-005 0.00273084 0 56.2751 422.738 0
0.000241714 0.00100077 0 -6.62533 41.6434 0
-0.000154516 0.0114773 0 -6.63545 2950.5 0
0.00502442 0.0222916 0 994.463 2964.22 0
-0.000166546 0.00272686 0 102.397 375.201 0
0.000707598 0.00365891 0 2039.66 1546.72 0
-0.00157418 0.0046046 0 -897.573 1927.3 0
0.000122725 0.00301099 0 1774.35 550.681 0
0.000172305 0.00324558 0 1273.29 1760.97 0
7.46185e-006 0.00286175 0 -9.68133 593.501 0
0.00533293 0.0140838 0 1928.66 1293.31 0
0.00520504 0.0284215 0 1264.27 2882.91 0
-0.00170266 0.00713636 0 -329.115 2668.7 0
4.38765e-005 0.00290514 0 -68.937 667.738 0
0.00035679 0.0099507 0 162.997 2911.44 0
0.000120447 0.00300871 0 1745.72 506.371 0
7.85992e-005 0.00284146 0 -87.0273 537.262 0
0.000146556 0.00306157 0 1834.78 1100.24 0
-0.000265484 0.00230758 0 55.1746 211.35 0
-0.000558184 0.0114136 0 142.875 2856.49 0
0.000873988 0.011905 0 -356.096 2702.85 0
0.00195145 0.0157285 0 -73.4487 2768.1 0
0.000415959 0.00988952 0 198.719 2907.02 0
0.00204861 0.00551694 0 618.822 1879.01 0
0.00159497 0.00893937 0 5.04203 2667.49 0
0.00125366 0.00690066 0 825.865 2676.91 0
-0.000537482 0.00397822 0 -1407.28 2206.86 0
-0.00245206 0.00890865 0 -198.165 2335.56 0
-0.00591638 0.015069 0 -2435.53 1934.77 0
0.00182541 0.0157696 0 -177.104 2757.23 0
-6.39179e-005 0.00274368 0 48.2477 437.805 0
1.24162e-005 0.00286011 0 -15.6323 589.98 0
0.000785526 0.00520879 0 984.528 2556.09 0
0.000119132 0.00288179 0 -145.694 548.677 0
0.000107617 0.00492998 0 151.291 2684.99 0
-0.000398708 0.00617064 0 -381.659 2761.59 0
-0.00031795 0.000861625 0 4.71076 34.8214 0
-0.0054742 0.0145195 0 -2333.31 1761.05 0
-0.00050603 0.0093045 0 -261.653 2891.85 0
-0.00281713 0.0160093 0 -460.667 2744.94 0
-0.00521587 0.0225645 0 -1083.25 3008.55 0
0.000631138 0.00410172 0 1420.73 2173.76 0
0.00077675 0.0118594 0 -370.462 2724.99 0
-0.000339893 0.00491785 0 -508.637 2633.38 0
0.000278502 0.0033019 0 1727.64 1628.58 0
-0.000206291 0.0025551 0 76.1866 286.714 0
0.0015782 0.00885327 0 -2.98486 2676.18 0
-0.000601058 0.00917374 0 -297.387 2876.49 0
0.000107852 0.00308374 0 1008.28 1509.37 0
0.000329157 0.00324408 0 1985.02 1191.85 0
-0.000107456 0.0030138 0 -1492.18 1397.14 0
0.000995869 0.00478803 0 1428.3 2320.46 0
-0.00176263 0.00715431 0 -312.545 2636.3 0
0.000133123 0.00190024 0 -15.8666 143.58 0
0.00428452 0.0222831 0 794.748 2990.22 0
0.00249322 0.0134845 0 32.6616 2609.87 0
0.000209201 0.00303326 0 1959.02 433.217 0
1.124e-005 0.00241342 0 -3.1611 260.493 0
-0.000138897 0.00282521 0 127.526 463.755 0
-0.000422518 0.00130967 0 29.6206 91.7933 0
0.000897928 0.00602889 0 842.916 2651.71 0
0.00296246 0.0177704 0 494.642 2863.28 0
-0.000240922 0.0022558 0 47.1971 204.565 0
0.000161456 0.0106342 0 61.4865 2939.37 0
-0.000169117 0.00269067 0 94.772 357.747 0
-0.00600599 0.0132277 0 -1379.04 670.627 0
-0.00498542 0.0226529 0 -1001.56 3027.96 0
0.00035646 0.00189436 0 -38.6501 144.794 0
0.000360867 0.00193124 0 -40.6244 148.947 0
0.000188008 0.00159518 0 -16.5012 102.476 0
0.00315697 0.0294361 0 742.827 3095.96 0
0.000380728 0.00331446 0 1957.99 1283.72 0
-0.000407732 0.00541329 0 -465.261 2695.68 0
0.00599218 0.0187772 0 1554.71 2560.14 0
-0.000475668 0.0124289 0 411.088 2754.08 0
9.243e-005 0.00339173 0 512.855 2170.73 0
-0.0022067 0.00902531 0 -129.5 2443.15 0
0.000138287 0.010546 0 62.2712 2937.61 0
-4.59787e-005 0.00300592 0 55.7672 1071.8 0
0.000475334 0.00325723 0 2254.99 921.24 0
0.0081269 0.0233608 0 1679.92 2681.23 0
-0.000136448 0.00286953 0 145.693 493.733 0
0.000465099 0.00132931 0 -30.6762 98.9512 0
0.000196949 0.00312437 0 1853.56 1134.17 0
-0.000725979 0.00459524 0 -1221 2398.62 0
0.00566025 0.0201173 0 1332.23 2795.81 0
-0.000237093 0.000937504 0 5.51483 36.5671 0
-7.15727e-006 0.00298867 0 12.6478 966.954 0
-0.000556128 0.00552312 0 -653.035 2664.04 0
-0.000151452 0.00278159 0 114.944 418.864 0
0.00604583 0.0167381 0 2226.06 2621.92 0
5.44524e-005 0.00307484 0 294.263 1506.36 0
3.5211e-005 0.00270778 0 -23.4543 412.307 0
-0.00210731 0.0068781 0 -413.397 2267.04 0
8.91266e-005 0.00319599 0 707.626 1855.54 0
-0.00242079 0.00974735 0 -95.7615 2425.04 0
0.00135885 0.00413507 0 1021.18 1756.74 0
-0.00108228 0.00797081 0 -610.004 2788.67 0
3.29303e-005 0.00271504 0 -22.1988 418.297 0
-0.000508078 0.0208168 0 -189.442 2838.6 0
-0.00472826 0.0198065 0 -1056.51 2790.88 0
0.00152826 0.0090827 0 -25.321 2676.07 0
-0.00252462 0.00897287 0 -198.429 2312.8 0
-4.09377e-005 0.0027578 0 32.7008 455.092 0
-0.00186927 0.0116808 0 183.008 2651.73 0
0.00108447 0.00518193 0 1323.28 2398.01 0
-0.00419392 0.0202211 0 -886.371 2890.92 0
0.000296615 0.00594885 0 300.778 2743.84 0
0.00365557 0.0156923 0 935.022 2645.99 0
-0.000138643 0.00311989 0 -1328.42 1463.27 0
3.44704e-005 0.00298593 0 -65.1827 951.442 0
-0.000249911 0.000891772 0 3.8841 33.8326 0
0.00110337 0.0099601 0 -136.658 2717.91 0
8.04689e-005 0.00279643 0 -73.1943 482.667 0
0.00779157 0.0249956 0 1540.4 2887.56 0
0.000351464 0.00337107 0 1791.03 1577.19 0
-0.00012879 0.00323538 0 -996.709 1882.81 0
0.000155895 0.00168996 0 -14.8457 113.738 0
8.56943e-005 0.00294739 0 -160.243 726.947 0
0.0053023 0.0238774 0 984.157 3038.91 0
0.000238423 0.00318026 0 1830.52 1226.93 0
0.000230406 0.00226533 0 -46.5998 207.314 0
-5.15866e-005 0.00292996 0 91.1014 724.193 0
2.57476e-005 0.00286927 0 -33.9212 603.497 0
0.000105066 0.00340141 0 574.879 2157.34 0
-0.0006343 0.00341198 0 -2133.95 1197.78 0
-0.00683177 0.0130924 0 -592.12 475.442 0
-1.54609e-005 0.00299907 0 22.2199 1019.32 0
-0.00215958 0.00656839 0 -456.437 2199.87 0
0.00301179 0.0141363 0 628.155 2524.5 0
-0.000723924 0.00463742 0 -1212.13 2423.33 0
-0.000555458 0.00358088 0 -1872.04 1629.84 0
0.000287933 0.00394954 0 805.093 2404.12 0
-0.00525881 0.0259389 0 -949.864 3091.7 0
-0.000235386 0.00314485 0 -1994.62 1046.2 0
-0.000664883 0.00104525 0 35.4151 114.173 0
0.00182857 0.0107598 0 -101.495 2660.9 0
0.00289308 0.0133881 0 439.37 2533.46 0
0.000556851 0.000459359 0 9.23673 12.7666 0
-6.31462e-005 0.00306344 0 -328.27 1470.31 0
0.00204396 0.0126442 0 -186.777 2590.95 0
-0.000369072 0.00408052 0 -914.737 2420.15 0
-0.00018247 0.00378321 0 -591.353 2381.89 0
0.000579156 0.0162179 0 -311.453 2755.34 0
0.00117061 0.0100074 0 -161.492 2706.76 0
0.000129771 0.00301154 0 1559.15 399.77 0
0.00050022 0.00329429 0 2241.68 985.036 0
-0.00194273 0.0117557 0 175.69 2587.24 0
0.000295066 0.00600891 0 299.787 2752.75 0
-0.000154748 0.0030213 0 -1782.4 389.901 0
8.51353e-005 0.00297491 0 -186.429 824.918 0
0.000370749 0.00364798 0 1380.23 2079.97 0
0.00032381 0.000892659 0 -4.88598 37.5737 0
-0.000114683 0.00273658 0 80.7793 415.162 0
7.10543e-005 0.0030026 0 -103.508 1072.25 0
-9.6647e-005 0.00324264 0 -734.352 1943.37 0
0.000733896 0.00537107 0 864.621 2599.12 0
0.000155197 0.00494735 0 230.225 2682.62 0
0.000610019 0.00412319 0 1387.9 2211.38 0
0.000353717 0.00194986 0 -40.591 151.021 0
-0.000244432 0.00314026 0 -2043.05 981.833 0
-0.00502653 0.0232658 0 -979.474 2987.03 0
-0.00178789 0.0309983 0 -443.38 3218.65 0
-0.000579723 0.00361754 0 -1855.01 1668.66 0
0.00813841 0.0273314 0 1440.63 2983.65 0
-0.002496 0.0131044 0 54.4846 2523.19 0
-0.00431729 0.0290645 0 -1023.44 2999 0
-0.000157683 0.00240005 0 43.2272 248.396 0
-6.09633e-005 0.00273787 0 44.6481 432.766 0
-0.000172602 0.00356894 0 -747.105 2262.33 0
5.95493e-005 0.00280503 0 -57.3433 500.56 0
3.59382e-005 0.00297531 0 -71.8507 899.061 0
0.0038221 0.0156522 0 1028.52 2609.33 0
0.00151814 0.00899556 0 -18.6872 2680.48 0
0.00891208 0.0209237 0 2129.63 2365.58 0
0.00932881 0.0247628 0 1864.39 2759.91 0
0.000401147 0.00319889 0 2272.79 815.121 0
-1.37134e-005 0.00292236 0 23.6866 722.821 0
-0.00149883 0.0199029 0 -203.089 2876.9 0
-0.000151382 0.00307642 0 -1744.13 1131.27 0
-9.99299e-005 0.00297786 0 211.461 765.129 0
0.00528439 0.0241343 0 990.257 3043.81 0
2.61097e-005 0.00286432 0 -33.5442 594.821 0
0.000206875 0.00349712 0 995.865 2139.81 0
-0.00509797 0.0234717 0 -976.821 2996.66 0
-0.000597722 0.000953511 0 29.3525 89.0878 0
-0.00793898 0.0155863 0 -2170.67 1539.33 0
0.00183935 0.0106624 0 -94.4917 2643.6 0
7.52069e-005 0.00339368 0 414.526 2197.24 0
-7.77056e-005 0.00294222 0 142.913 728.063 0
-9.8985e-005 0.00297992 0 214.637 776.132 0
0.00161823 0.00911669 0 -14.8061 2679.59 0
8.21842e-005 0.00297527 0 -179.223 836.203 0
-0.00188133 0.00900925 0 -73.0137 2645.27 0
-0.00617827 0.0275965 0 -1129.63 2886.7 0
-0.000490092 0.00321051 0 -2102.16 1001.18 0
0.00945115 0.0288751 0 1612.45 3013.57 0
-0.00016434 0.00272067 0 100.876 375.741 0
-0.00797941 0.0222445 0 -1720.28 2602.68 0
-4.01564e-005 0.00301654 0 21.9713 1135.91 0
-0.00180498 0.00506765 0 -751.903 1933.64 0
-0.000161305 0.00301261 0 -794.945 123.893 0
-0.000482063 0.00316965 0 -1924.17 969.757 0
-0.000942791 0.00378901 0 -1693.15 1727.18 0
-0.000134053 0.00282435 0 125.512 471.772 0
0.000242746 0.000963685 0 -5.36167 38.798 0
0.00525461 0.0274919 0 1334.56 2982.33 0
0.00306352 0.0179257 0 526.696 2865.42 0
-0.000120066 0.00324295 0 -922.881 1904.19 0
-0.00319507 0.0125029 0 -1069.99 2200.05 0
-0.000290892 0.00233844 0 61.6111 209.752 0
0.00159844 0.00482417 0 832.216 1989.23 0
0.00787978 0.0236538 0 1620.66 2786.52 0
0.00145057 0.0259009 0 436.473 3031.5 0
-0.000336257 0.00619409 0 -293.455 2776.78 0
-0.000333917 0.00172186 0 31.9988 125.301 0
0.00577509 0.0216659 0 1248.66 2882.82 0
0.000667048 0.00332313 0 1837.55 1319.19 0
0.00248969 0.00807562 0 309.259 2265.89 0
-0.00160944 0.00467215 0 -887.096 1910 0
1.98969e-005 0.00242157 0 -5.94037 263.34 0
0.000286635 0.0021356 0 -44.3307 179.17 0
-0.00161117 0.00618199 0 -552.396 2537.56 0
7.54635e-005 0.00268391 0 -45.5769 388.343 0
0.00101663 0.00497361 0 1340.37 2362.26 0
9.78423e-005 0.00320089 0 768.045 1843.71 0
-0.000282098 0.0245537 0 -96.9363 3022.64 0
0.00160534 0.0053807 0 710.954 2268.13 0
0.000645555 0.00426047 0 1339.88 2269.41 0
0.000344665 0.00191282 0 -38.5387 147.092 0
-4.37224e-005 0.0030135 0 31.7272 1119.96 0
0.000410526 0.00592784 0 403.637 2749.09 0
-0.00161438 0.00462874 0 -870.474 1857.71 0
0.000197339 0.00307463 0 2256.89 736.728 0
-0.00787948 0.0250527 0 -1513.76 2860.52 0
0.000365567 0.000836364 0 -3.13995 35.871 0
0.000428529 0.0031113 0 1831.26 779.027 0
6.29689e-005 0.00280138 0 -60.0339 494.642 0
-0.00260928 0.0115127 0 27.0314 2446.38 0
0.00511854 0.0182191 0 1342.08 2688.24 0
-0.000191506 0.0013612 0 15.137 75.1394 0
0.000255298 0.00234631 0 -57.9924 221.152 0
7.80872e-005 0.00285378 0 -90.8929 553.833 0
-6.93966e-006 0.00361778 0 -20.5934 2390.37 0
-0.000112834 0.00273034 0 77.391 411.221 0
-0.000151306 0.00308356 0 -1683.25 1187.08 0
0.000794921 0.00339323 0 1605.72 1405.61 0
0.000120559 0.00308016 0 1201.29 1439.15 0
-0.00060963 0.000994212 0 31.4216 99.1328 0
-0.000187211 0.00375918 0 -651.516 2382.28 0
-0.000179749 0.00239602 0 48.3235 244.661 0
0.000583853 0.00320912 0 1747.74 1098.49 0
-0.000220391 0.00307379 0 -2188.3 635.499 0
-3.20721e-005 0.00313154 0 -233.268 1707.56 0
-0.00240166 0.00829286 0 -250.906 2319.25 0
-0.000107553 0.0032363 0 -834.618 1910.28 0
0.000485775 0.00324734 0 2245.79 913.321 0
-1.6528e-005 0.00283252 0 17.9539 546.111 0
0.000388916 0.00319175 0 2294.2 816.99 0
-0.000191501 0.000101552 0 -0.151312 0.321142 0
-0.00244196 0.00780076 0 -328.283 2221.95 0
-0.000237142 0.00223825 0 45.0852 201.371 0
-0.00179252 0.00511195 0 -751.275 1978.4 0
7.86645e-005 0.00300926 0 -43.9467 1168.12 0
-0.00578012 0.0268724 0 -1048.22 3063.91 0
-0.00101007 0.00801211 0 -573.48 2831.46 0
0.000363332 0.00337974 0 1792.76 1575.03 0
0.000391279 0.00186159 0 -39.2557 141.367 0
0.000433244 0.00317308 0 2233 844.662 0
0.00161612 0.00543442 0 685.868 2269.64 0
-0.00207993 0.00693738 0 -404.07 2276.43 0
0.000483914 0.00474879 0 765.438 2575.71 0
0.000802557 6.40842e-005 0 0.0943421 0.0812135 0
0.00066144 0.00330597 0 1800.6 1286.54 0
0.00141767 0.0197289 0 189.376 2864.95 0
-0.000651775 0.00329699 0 -1770.04 1240.63 0
0.000282152 0.00304241 0 1087.79 267.594 0
-0.000357054 0.00319624 0 -2201.56 897.244 0
-0.00178284 0.00623412 0 -489.318 2343.33 0
3.8992e-005 0.00380209 0 142.537 2466.69 0
-0.00100109 0.0210667 0 -357.223 2864.21 0
0.000165033 0.00158259 0 -14.3501 99.9052 0
0.00864187 0.0174253 0 2282.15 1907.22 0
0.00315453 0.0128329 0 880.597 2308.68 0
-8.64597e-005 0.00318341 0 -714.424 1821.84 0
-0.000259494 0.0126492 0 363.956 2793.72 0
0.000466396 0.000355167 0 4.1764 4.0647 0
0.000246728 0.00318708 0 1849.77 1214.32 0
-0.000724122 0.000493878 0 4.29535 48.0359 0
-0.00236534 0.0089472 0 -172.619 2389.69 0
-0.00585899 0.0184819 0 -1518.11 2448.96 0
-0.000109395 0.00425783 0 -224.62 2594.01 0
-0.000225082 0.00307869 0 -2212.35 658.056 0
0.00116126 0.00383867 0 1205.36 1680.54 0
0.000146244 0.00305529 0 1954.96 1064.38 0
0.000106639 0.00285591 0 -120.59 534.22 0
0.00516349 0.0142403 0 2062.01 1568.75 0
-0.000547118 0.0281975 0 -172.53 3162.47 0
-0.00314055 0.0188201 0 -582.031 2873.66 0
6.39205e-005 0.0034062 0 358.294 2214.95 0
0.000746714 0.00049437 0 -6.90001 50.6844 0
0.00226648 0.0258744 0 664.328 2971.68 0
-0.000137355 0.00283875 0 131.276 474.246 0
0.00173233 0.0108179 0 -128.8 2681.84 0
-0.000334456 0.00625618 0 -293.327 2779.77 0
-0.000652252 0.00338145 0 -2034.73 1264.98 0
-6.89277e-005 0.00306466 0 -397.708 1491.01 0
0.000126795 0.00304178 0 1816.38 1243.45 0
0.00478399 0.0277755 0 1192.16 2883.73 0
0.000516287 0.0229306 0 193.95 2945.37 0
5.89116e-005 0.00254342 0 -23.6158 310.666 0
-0.00795861 0.0246948 0 -1541.06 2890.92 0
0.00133689 0.00999394 0 -141.049 2681.57 0
-0.000118825 0.0220921 0 -65.0419 2899.69 0
6.34909e-005 0.0107046 0 40.8281 2943.4 0
-0.000946741 0.00381309 0 -1746.29 1708.37 0
0.00581241 0.0241952 0 1132.94 3039.05 0
-0.00487736 0.01991 0 -1085 2836.26 0
0.00170829 0.0256098 0 532.154 3005.96 0
9.98067e-005 0.00316224 0 845.9 1740.9 0
0.00308063 0.0142797 0 644.209 2530.19 0
-0.000279242 0.00307977 0 -2219.85 598.268 0
-0.000183934 0.00303725 0 -2178.76 495.614 0
7.83288e-005 0.00286324 0 -95.3013 568.177 0
-0.000440884 0.00514493 0 -578.666 2640.95 0
0.000455558 0.00477565 0 716.954 2593.84 0
0.00520625 0.0221693 0 1085.3 2998.08 0
-0.00179507 0.00722781 0 -295.471 2581.15 0
5.54873e-005 0.00266826 0 -32.1525 380.939 0
-0.00157971 0.00456195 0 -883.535 1872.1 0
4.18607e-005 0.00302762 0 11.8109 1208.61 0
-0.000194972 5.19224e-005 0 -0.0684895 0.139995 0
-0.000846289 0.00342394 0 -1423.22 1310.76 0
-0.00105965 0.00823661 0 -559.672 2803.68 0
0.000163413 0.00479131 0 274.209 2662.92 0
-8.2874e-005 0.00288534 0 111.787 599.348 0
0.00157378 0.00552232 0 689.541 2371.38 0
-7.66839e-005 0.00293931 0 137.988 721.147 0
0.000101978 0.0109948 0 40.6141 2952.91 0
-0.000363872 0.00601296 0 -353.296 2759.06 0
0.000117978 0.00287815 0 -141.729 546.672 0
0.000219153 0.00318835 0 1723.4 1337.38 0
-0.00163196 0.00449872 0 -827.354 1656.57 0
-0.000221409 0.00303399 0 -1679.43 374.995 0
-0.000370966 0.0244074 0 -154.229 3000.48 0
-0.000466554 0.00315829 0 -1934.85 929.927 0
0.000396164 0.00331941 0 1985.78 1259.88 0
-0.00482666 0.0238063 0 -888.645 3020.7 0
0.00133411 0.00522841 0 1229.25 2373.5 0
-0.00267568 0.00982141 0 -133.009 2278.45 0
-0.000480207 0.0219659 0 -194.16 2892.41 0
0.00177473 0.0106071 0 -97.1139 2681.58 0
0.000428512 0.00597987 0 408.963 2742.78 0
0.00330832 0.0202369 0 583.606 2983.5 0
-0.00036699 0.012473 0 368.957 2788.59 0
-0.000901486 0.00347959 0 -1373.59 1340.92 0
-9.70158e-005 0.00294708 0 176.271 700.999 0
-0.00110466 0.0144253 0 464.215 2778.72 0
-0.00107199 0.0143087 0 464.332 2779.87 0
0.000113095 0.0030798 0 1080.56 1474.83 0
0.000776547 0.0117402 0 -372.531 2768.87 0
-0.000196596 0.00302496 0 -1344.13 288.834 0
-0.00581483 0.0148124 0 -2379.01 1763.74 0
0.000125326 0.00308478 0 1265.14 1421.53 0
-0.00172589 0.0230235 0 -605.821 2902.6 0
-0.00123798 0.0114294 0 284.838 2745.82 0
-0.000106038 0.00301072 0 -1414.37 1466.23 0
7.68012e-005 0.00277918 0 -65.3905 466.787 0
-0.000218387 0.00226751 0 44.3658 208.915 0
0.00288382 0.0120736 0 21.819 2313.91 0
0.000136685 0.00272066 0 -88.6245 394.115 0
0.00126396 0.00994364 0 -137.451 2682.21 0
0.000169734 0.00323168 0 1290.12 1734.94 0
3.33298e-005 0.00296283 0 -66.368 846.926 0
7.38909e-005 0.00285244 0 -85.7455 554.244 0
0.00226662 0.00684142 0 437.924 2179.19 0
-4.80444e-005 0.00288948 0 69.0514 632.987 0
0.000117291 0.00304527 0 1372.56 1313.66 0
0.00044057 0.00316393 0 2209.97 883.395 0
0.00025781 0.000139806 0 0.292828 0.471246 0
-0.000553437 0.0115383 0 151.519 2857.57 0
0.00174054 0.0109254 0 -128.957 2685.82 0
-0.00657824 0.0304887 0 -1379.87 2798.08 0
-0.00287878 0.0309438 0 -644.582 3164.5 0
-1.74214e-005 0.00292383 0 30.259 725.927 0
0.000417861 0.00311152 0 1866.58 849.782 0
-0.000158816 0.00302837 0 -2178.67 441.006 0
0.000540608 0.00339996 0 2116.35 1221.33 0
0.00322243 0.0179545 0 632.302 2851.73 0
-0.000159371 0.0013528 0 12.6146 72.5011 0
0.000126077 0.0159893 0 -10.2621 2678.51 0
-0.00432652 0.0294311 0 -1019.66 2996.46 0
0.0015673 0.00546801 0 705.88 2348.72 0
-5.0904e-005 0.00292621 0 88.1814 714.618 0
-0.000106737 0.00293051 0 170.661 639.459 0
0.00275932 0.0110589 0 31.0296 2357.84 0
0.000556951 0.00340784 0 2130.78 1218.53 0
0.000399007 0.0063813 0 343.948 2778.84 0
-4.55764e-005 0.00288684 0 64.0273 628.545 0
5.78688e-005 0.00240298 0 -16.5272 255.89 0
-0.00135948 0.0128543 0 331.667 2744.22 0
0.00105587 0.00489705 0 1441.02 2339.24 0
-0.00180772 0.00736401 0 -283.852 2575.72 0
8.62884e-005 0.0107917 0 40.3448 2945.26 0
-1.73838e-005 0.00299616 0 27.9409 1003.62 0
-0.000559779 0.00402893 0 -1399.53 2238.37 0
-0.000129894 0.00339006 0 -760.008 2146.42 0
-0.00108645 0.0209701 0 -349.373 2875.21 0
-0.000355289 0.00318516 0 -2206.26 863.592 0
6.75287e-005 0.00268766 0 -41.425 392.623 0
-1.6399e-005 0.00282695 0 17.6256 538.836 0
0.000375645 0.00184967 0 -38.0948 139.78 0
0.000226595 0.00318087 0 1793.59 1292.6 0
-0.00157723 0.0197887 0 -157.913 2951.21 0
0.000153682 0.00302297 0 2021.51 439.462 0
-0.000983791 0.00376429 0 -1533.88 1785.87 0
0.00320404 0.0139037 0 789.118 2347.67 0
-0.000399729 0.0051532 0 -507.379 2668.65 0
-8.43671e-005 0.0028893 0 116.686 605.032 0
0.00153091 0.0204307 0 365.143 2882.09 0
0.0023948 0.0125217 0 -135.81 2526.91 0
0.000662239 0.00525468 0 827.863 2617.82 0
-0.00103759 0.0179087 0 189.887 2878.72 0
-0.00194218 0.00558429 0 -647.352 2069.61 0
-0.000960129 0.00376594 0 -1606.48 1796.47 0
-0.000309837 0.00306474 0 -1868 601.81 0
0.00162461 0.00920594 0 -12.3001 2676.4 0
0.00346181 0.0203111 0 611.791 2956.04 0
0.000412094 0.000782235 0 -1.40096 34.8763 0
4.10836e-005 0.00290739 0 -65.2573 674.424 0
0.00107752 0.00513333 0 1321.91 2394.29 0
-0.00139776 0.00696247 0 -633.743 2601.89 0
5.83714e-005 0.0023895 0 -16.0985 251.677 0
0.000501828 0.0119171 0 -276.684 2878.34 0
-2.97555e-005 0.00300349 0 40.6765 1047.02 0
0.00113092 0.00612109 0 1023.29 2610.62 0
3.11664e-005 0.00285722 0 -38.6041 581.588 0
-0.000756348 0.0223669 0 -286.724 2914.96 0
0.000606022 0.00322532 0 1734.3 1142.92 0
0.00858419 0.0213223 0 1926.62 2328.87 0
0.00228739 0.00873166 0 193.105 2434.19 0
-0.00330691 0.0124678 0 -1355.74 1794.37 0
-0.00135503 0.018735 0 57.4825 2938.47 0
-0.00782909 0.0173425 0 -2281.3 1925.51 0
0.000179373 0.00168518 0 -16.9423 113.691 0
0.000181353 0.0228576 0 45.2842 2944.24 0
0.00116853 0.00608209 0 1059.89 2588.18 0
0.00534216 0.0272787 0 1229.6 2887.59 0
0.000808836 0.00340365 0 1597.79 1406.5 0
-0.00176706 0.00728799 0 -287.449 2580.03 0
0.000366125 0.00308127 0 1819.86 643.592 0
0.000142062 0.00271694 0 -90.5583 388.93 0
0.000456136 0.0264018 0 124.031 3111.18 0
0.000149779 0.00301624 0 1577.42 296.461 0
8.09965e-005 0.015903 0 -7.41575 2679.7 0
3.07264e-005 0.00286231 0 -39.0227 590.169 0
-0.000148146 0.00339011 0 -865.489 2098.56 0
-0.0064378 0.0277565 0 -1290.92 3229.23 0
0.00072806 0.00532362 0 862.508 2600.54 0
-0.00065633 0.00335203 0 -1929.1 1299.42 0
-0.000360464 0.000878987 0 7.14785 39.0468 0
-9.67537e-005 0.00295742 0 186.622 728.844 0
-0.000484113 0.00948683 0 -220.907 2900.88 0
-0.000565445 0.00399845 0 -1416.23 2206.92 0
0.000588623 0.00111811 0 -33.136 103.724 0
0.000130395 0.00304539 0 1810.13 1228.25 0
0.000107754 0.00285149 0 -119.153 527.746 0
0.00165731 0.0250536 0 525.962 2969.01 0
0.00285988 0.0119675 0 -13.7424 2304.19 0
-9.54028e-005 0.00428588 0 -203.181 2607.14 0
-0.000124414 0.00317156 0 -1067.53 1720.87 0
-0.00814733 0.0285856 0 -1355.56 3046.64 0
-0.000216377 0.0031251 0 -1972.21 1021.07 0
0.00549751 0.012219 0 374.656 129.809 0
-0.00550796 0.012201 0 -298.269 98.2335 0
0.00287309 0.0132504 0 427.787 2501.2 0
0.000396043 0.00090361 0 -8.20856 43.7796 0
-9.96587e-005 0.00294535 0 179.032 689.976 0
-0.00215947 0.00674928 0 -443.948 2237.48 0
-0.000289559 0.000893856 0 5.12151 35.9142 0
0.00184728 0.00894591 0 56.8818 2603.75 0
-0.000404895 0.00611192 0 -382.557 2754.78 0
-0.00085135 0.00350535 0 -1587.07 1495.25 0
3.34633e-006 0.00298331 0 -5.84611 941.95 0
0.00378526 0.0199019 0 745.973 2906.57 0
-0.000528492 0.024373 0 -180.831 3011.39 0
-0.000842118 0.0116133 0 346.053 2735.63 0
-0.00298148 0.0188909 0 -494.399 2901.03 0
5.9556e-005 0.0025331 0 -23.2282 306.368 0
-0.000468824 0.00121303 0 29.8833 89.3683 0
9.1581e-005 0.0171817 0 -7.04927 2680.87 0
-0.00127026 0.0113439 0 276.79 2744.77 0
0.00402234 0.0130084 0 1734.48 1247.92 0
-0.000363163 0.00496329 0 -525.486 2640.99 0
-0.00609252 0.0268039 0 -1085.26 3054.52 0
0.000283831 0.00172705 0 -27.2882 122.886 0
-0.000884834 0.00452052 0 -1510.78 2296.84 0
0.000104251 0.00312707 0 920.925 1638.71 0
0.00028648 0.000908897 0 -4.49308 36.7983 0
0.00627587 0.0218045 0 1367.63 2807.42 0
0.000138189 0.00301242 0 1379.99 309.775 0
-8.45766e-005 0.00300744 0 29.9871 1194.49 0
-0.000367296 0.0115469 0 20.12 2904.32 0